  14  14   0   0
  0.1527893E+03  0.8315576E-09  0.1108743E-08  0.2678964E-08  0.5000000E-15
  1.000000000000000E-004
  CAR 
 unknown system                          
      2.05086629    -22.00727849  301     -3.95865779      1.00000000
    -22.007  0.0000E+00  0.0000E+00
    -21.927  0.0000E+00  0.0000E+00
    -21.847  0.0000E+00  0.0000E+00
    -21.767  0.0000E+00  0.0000E+00
    -21.687  0.0000E+00  0.0000E+00
    -21.606  0.0000E+00  0.0000E+00
    -21.526  0.0000E+00  0.0000E+00
    -21.446  0.0000E+00  0.0000E+00
    -21.366  0.0000E+00  0.0000E+00
    -21.286  0.0000E+00  0.0000E+00
    -21.205  0.1384E-14  0.1110E-15
    -21.125  0.2777E-07  0.2227E-08
    -21.045  0.2563E-02  0.2055E-03
    -20.965  0.1853E+01  0.1488E+00
    -20.885  0.1797E+02  0.1590E+01
    -20.804  0.5085E+01  0.1998E+01
    -20.724  0.2474E-01  0.2000E+01
    -20.644  0.1033E-05  0.2000E+01
    -20.564  0.2942E-12  0.2000E+01
    -20.484  0.0000E+00  0.2000E+01
    -20.403  0.0000E+00  0.2000E+01
    -20.323  0.0000E+00  0.2000E+01
    -20.243  0.0000E+00  0.2000E+01
    -20.163  0.0000E+00  0.2000E+01
    -20.083  0.0000E+00  0.2000E+01
    -20.002  0.0000E+00  0.2000E+01
    -19.922  0.0000E+00  0.2000E+01
    -19.842  0.0000E+00  0.2000E+01
    -19.762  0.0000E+00  0.2000E+01
    -19.682  0.0000E+00  0.2000E+01
    -19.601  0.0000E+00  0.2000E+01
    -19.521  0.0000E+00  0.2000E+01
    -19.441  0.0000E+00  0.2000E+01
    -19.361  0.0000E+00  0.2000E+01
    -19.281  0.0000E+00  0.2000E+01
    -19.200  0.0000E+00  0.2000E+01
    -19.120  0.0000E+00  0.2000E+01
    -19.040  0.0000E+00  0.2000E+01
    -18.960  0.0000E+00  0.2000E+01
    -18.880  0.0000E+00  0.2000E+01
    -18.800  0.0000E+00  0.2000E+01
    -18.719  0.0000E+00  0.2000E+01
    -18.639  0.0000E+00  0.2000E+01
    -18.559  0.0000E+00  0.2000E+01
    -18.479  0.0000E+00  0.2000E+01
    -18.399  0.0000E+00  0.2000E+01
    -18.318  0.5654E-08  0.2000E+01
    -18.238  0.9106E-03  0.2000E+01
    -18.158  0.1115E+01  0.2090E+01
    -18.078  0.1673E+02  0.3431E+01
    -17.998  0.7033E+01  0.3995E+01
    -17.917  0.5652E-01  0.4000E+01
    -17.837  0.4088E-05  0.4000E+01
    -17.757  0.2051E-11  0.4000E+01
    -17.677  0.0000E+00  0.4000E+01
    -17.597  0.0000E+00  0.4000E+01
    -17.516  0.0000E+00  0.4000E+01
    -17.436  0.0000E+00  0.4000E+01
    -17.356  0.0000E+00  0.4000E+01
    -17.276  0.0000E+00  0.4000E+01
    -17.196  0.0000E+00  0.4000E+01
    -17.115  0.0000E+00  0.4000E+01
    -17.035  0.0000E+00  0.4000E+01
    -16.955  0.0000E+00  0.4000E+01
    -16.875  0.0000E+00  0.4000E+01
    -16.795  0.0000E+00  0.4000E+01
    -16.714  0.0000E+00  0.4000E+01
    -16.634  0.0000E+00  0.4000E+01
    -16.554  0.3947E-10  0.4000E+01
    -16.474  0.3213E-04  0.4000E+01
    -16.394  0.1863E+00  0.4015E+01
    -16.314  0.1064E+02  0.4869E+01
    -16.233  0.1367E+02  0.5965E+01
    -16.153  0.4424E+00  0.6000E+01
    -16.073  0.1543E-03  0.6000E+01
    -15.993  0.3934E-09  0.6000E+01
    -15.913  0.0000E+00  0.6000E+01
    -15.832  0.0000E+00  0.6000E+01
    -15.752  0.0000E+00  0.6000E+01
    -15.672  0.0000E+00  0.6000E+01
    -15.592  0.0000E+00  0.6000E+01
    -15.512  0.0000E+00  0.6000E+01
    -15.431  0.0000E+00  0.6000E+01
    -15.351  0.0000E+00  0.6000E+01
    -15.271  0.0000E+00  0.6000E+01
    -15.191  0.0000E+00  0.6000E+01
    -15.111  0.3004E-12  0.6000E+01
    -15.030  0.1047E-05  0.6000E+01
    -14.950  0.2494E-01  0.6002E+01
    -14.870  0.5101E+01  0.6411E+01
    -14.790  0.1797E+02  0.7852E+01
    -14.710  0.1844E+01  0.8000E+01
    -14.629  0.2540E-02  0.8000E+01
    -14.549  0.2738E-07  0.8000E+01
    -14.469  0.0000E+00  0.8000E+01
    -14.389  0.0000E+00  0.8000E+01
    -14.309  0.0000E+00  0.8000E+01
    -14.228  0.0000E+00  0.8000E+01
    -14.148  0.0000E+00  0.8000E+01
    -14.068  0.0000E+00  0.8000E+01
    -13.988  0.0000E+00  0.8000E+01
    -13.908  0.0000E+00  0.8000E+01
    -13.828  0.0000E+00  0.8000E+01
    -13.747  0.0000E+00  0.8000E+01
    -13.667  0.0000E+00  0.8000E+01
    -13.587  0.0000E+00  0.8000E+01
    -13.507  0.0000E+00  0.8000E+01
    -13.427  0.0000E+00  0.8000E+01
    -13.346  0.0000E+00  0.8000E+01
    -13.266  0.0000E+00  0.8000E+01
    -13.186  0.0000E+00  0.8000E+01
    -13.106  0.0000E+00  0.8000E+01
    -13.026  0.0000E+00  0.8000E+01
    -12.945  0.0000E+00  0.8000E+01
    -12.865  0.1384E-14  0.8000E+01
    -12.785  0.1347E-07  0.8000E+01
    -12.705  0.1606E-02  0.8000E+01
    -12.625  0.1478E+01  0.8119E+01
    -12.544  0.1749E+02  0.9521E+01
    -12.464  0.5939E+01  0.9997E+01
    -12.384  0.3644E-01  0.1000E+02
    -12.304  0.1959E-05  0.1000E+02
    -12.224  0.7247E-12  0.1000E+02
    -12.143  0.0000E+00  0.1000E+02
    -12.063  0.0000E+00  0.1000E+02
    -11.983  0.0000E+00  0.1000E+02
    -11.903  0.0000E+00  0.1000E+02
    -11.823  0.0000E+00  0.1000E+02
    -11.742  0.0000E+00  0.1000E+02
    -11.662  0.5158E-11  0.1000E+02
    -11.582  0.7815E-05  0.1000E+02
    -11.502  0.8274E-01  0.1001E+02
    -11.422  0.8089E+01  0.1066E+02
    -11.342  0.1591E+02  0.1193E+02
    -11.261  0.8533E+00  0.1200E+02
    -11.181  0.1328E-02  0.1200E+02
    -11.101  0.1038E+01  0.1208E+02
    -11.021  0.1652E+02  0.1341E+02
    -10.941  0.7315E+01  0.1399E+02
    -10.860  0.6279E-01  0.1400E+02
    -10.780  0.4885E-05  0.1400E+02
    -10.700  0.2640E-11  0.1400E+02
    -10.620  0.0000E+00  0.1400E+02
    -10.540  0.0000E+00  0.1400E+02
    -10.459  0.0000E+00  0.1400E+02
    -10.379  0.0000E+00  0.1400E+02
    -10.299  0.0000E+00  0.1400E+02
    -10.219  0.6725E-12  0.1400E+02
    -10.139  0.1857E-05  0.1400E+02
    -10.058  0.3528E-01  0.1400E+02
     -9.978  0.5863E+01  0.1447E+02
     -9.898  0.1753E+02  0.1588E+02
     -9.818  0.1507E+01  0.1600E+02
     -9.738  0.2480E+00  0.1602E+02
     -9.657  0.1344E+02  0.1710E+02
     -9.577  0.3086E+02  0.1957E+02
     -9.497  0.1174E+02  0.2051E+02
     -9.417  0.1721E+02  0.2189E+02
     -9.337  0.1315E+01  0.2200E+02
     -9.256  0.1271E-02  0.2200E+02
     -9.176  0.9444E-08  0.2200E+02
     -9.096  0.0000E+00  0.2200E+02
     -9.016  0.0000E+00  0.2200E+02
     -8.936  0.0000E+00  0.2200E+02
     -8.855  0.0000E+00  0.2200E+02
     -8.775  0.1384E-14  0.2200E+02
     -8.695  0.1542E-07  0.2200E+02
     -8.615  0.1752E-02  0.2200E+02
     -8.535  0.1542E+01  0.2212E+02
     -8.455  0.1759E+02  0.2353E+02
     -8.374  0.5776E+01  0.2400E+02
     -8.294  0.3395E-01  0.2400E+02
     -8.214  0.1742E-05  0.2400E+02
     -8.134  0.6140E-12  0.2400E+02
     -8.054  0.0000E+00  0.2400E+02
     -7.973  0.0000E+00  0.2400E+02
     -7.893  0.0000E+00  0.2400E+02
     -7.813  0.0000E+00  0.2400E+02
     -7.733  0.0000E+00  0.2400E+02
     -7.653  0.0000E+00  0.2400E+02
     -7.572  0.0000E+00  0.2400E+02
     -7.492  0.0000E+00  0.2400E+02
     -7.412  0.0000E+00  0.2400E+02
     -7.332  0.0000E+00  0.2400E+02
     -7.252  0.0000E+00  0.2400E+02
     -7.171  0.0000E+00  0.2400E+02
     -7.091  0.0000E+00  0.2400E+02
     -7.011  0.0000E+00  0.2400E+02
     -6.931  0.0000E+00  0.2400E+02
     -6.851  0.0000E+00  0.2400E+02
     -6.770  0.0000E+00  0.2400E+02
     -6.690  0.0000E+00  0.2400E+02
     -6.610  0.0000E+00  0.2400E+02
     -6.530  0.0000E+00  0.2400E+02
     -6.450  0.0000E+00  0.2400E+02
     -6.369  0.0000E+00  0.2400E+02
     -6.289  0.0000E+00  0.2400E+02
     -6.209  0.0000E+00  0.2400E+02
     -6.129  0.0000E+00  0.2400E+02
     -6.049  0.0000E+00  0.2400E+02
     -5.969  0.0000E+00  0.2400E+02
     -5.888  0.0000E+00  0.2400E+02
     -5.808  0.0000E+00  0.2400E+02
     -5.728  0.0000E+00  0.2400E+02
     -5.648  0.0000E+00  0.2400E+02
     -5.568  0.0000E+00  0.2400E+02
     -5.487  0.0000E+00  0.2400E+02
     -5.407  0.0000E+00  0.2400E+02
     -5.327  0.0000E+00  0.2400E+02
     -5.247  0.0000E+00  0.2400E+02
     -5.167  0.0000E+00  0.2400E+02
     -5.086  0.0000E+00  0.2400E+02
     -5.006  0.0000E+00  0.2400E+02
     -4.926  0.0000E+00  0.2400E+02
     -4.846  0.0000E+00  0.2400E+02
     -4.766  0.0000E+00  0.2400E+02
     -4.685  0.0000E+00  0.2400E+02
     -4.605  0.0000E+00  0.2400E+02
     -4.525  0.0000E+00  0.2400E+02
     -4.445  0.1519E-08  0.2400E+02
     -4.365  0.3814E-03  0.2400E+02
     -4.284  0.7139E+00  0.2406E+02
     -4.204  0.1532E+02  0.2529E+02
     -4.124  0.8796E+01  0.2599E+02
     -4.044  0.1050E+00  0.2600E+02
     -3.964  0.1179E-04  0.2600E+02
     -3.883  0.9315E-11  0.2600E+02
     -3.803  0.0000E+00  0.2600E+02
     -3.723  0.0000E+00  0.2600E+02
     -3.643  0.0000E+00  0.2600E+02
     -3.563  0.0000E+00  0.2600E+02
     -3.483  0.0000E+00  0.2600E+02
     -3.402  0.0000E+00  0.2600E+02
     -3.322  0.0000E+00  0.2600E+02
     -3.242  0.0000E+00  0.2600E+02
     -3.162  0.0000E+00  0.2600E+02
     -3.082  0.0000E+00  0.2600E+02
     -3.001  0.0000E+00  0.2600E+02
     -2.921  0.0000E+00  0.2600E+02
     -2.841  0.0000E+00  0.2600E+02
     -2.761  0.0000E+00  0.2600E+02
     -2.681  0.0000E+00  0.2600E+02
     -2.600  0.0000E+00  0.2600E+02
     -2.520  0.0000E+00  0.2600E+02
     -2.440  0.5903E-10  0.2600E+02
     -2.360  0.3971E-04  0.2600E+02
     -2.280  0.2016E+00  0.2602E+02
     -2.199  0.1076E+02  0.2688E+02
     -2.119  0.1353E+02  0.2796E+02
     -2.039  0.4443E+00  0.2800E+02
     -1.959  0.1682E-03  0.2800E+02
     -1.879  0.2178E-01  0.2800E+02
     -1.798  0.2619E+01  0.2821E+02
     -1.718  0.1258E+02  0.2922E+02
     -1.638  0.9234E+01  0.2996E+02
     -1.558  0.4862E+00  0.3000E+02
     -1.478  0.3993E-03  0.3000E+02
     -1.397  0.3066E-08  0.3000E+02
     -1.317  0.5775E-04  0.3000E+02
     -1.237  0.1057E+00  0.3001E+02
     -1.157  0.2964E+01  0.3025E+02
     -1.077  0.7030E+01  0.3081E+02
     -0.996  0.6608E+01  0.3134E+02
     -0.916  0.6508E+01  0.3186E+02
     -0.836  0.2923E+01  0.3210E+02
     -0.756  0.2585E+01  0.3230E+02
     -0.676  0.4337E+01  0.3265E+02
     -0.596  0.5948E+01  0.3313E+02
     -0.515  0.7869E+01  0.3376E+02
     -0.435  0.7290E+01  0.3434E+02
     -0.355  0.4349E+01  0.3469E+02
     -0.275  0.5695E+01  0.3515E+02
     -0.195  0.5261E+01  0.3557E+02
     -0.114  0.4892E+01  0.3596E+02
     -0.034  0.8613E+01  0.3665E+02
      0.046  0.1096E+02  0.3753E+02
      0.126  0.8546E+01  0.3822E+02
      0.206  0.6445E+01  0.3874E+02
      0.287  0.9596E+01  0.3950E+02
      0.367  0.1393E+02  0.4062E+02
      0.447  0.1166E+02  0.4156E+02
      0.527  0.1532E+02  0.4279E+02
      0.607  0.1380E+02  0.4389E+02
      0.688  0.1762E+02  0.4531E+02
      0.768  0.1682E+02  0.4665E+02
      0.848  0.9952E+01  0.4745E+02
      0.928  0.3783E+01  0.4776E+02
      1.008  0.2807E+01  0.4798E+02
      1.089  0.2340E+00  0.4800E+02
      1.169  0.3210E-03  0.4800E+02
      1.249  0.3481E-08  0.4800E+02
      1.329  0.0000E+00  0.4800E+02
      1.409  0.0000E+00  0.4800E+02
      1.490  0.0000E+00  0.4800E+02
      1.570  0.0000E+00  0.4800E+02
      1.650  0.0000E+00  0.4800E+02
      1.730  0.0000E+00  0.4800E+02
      1.810  0.0000E+00  0.4800E+02
      1.890  0.0000E+00  0.4800E+02
      1.971  0.0000E+00  0.4800E+02
      2.051  0.0000E+00  0.4800E+02
