       N       E                     dE             d eps       ncg     rms          rms(c)
DAV:   1    -0.803056648340E+02   -0.80306E+02   -0.31337E+01   520   0.195E+01    0.143E+01
DAV:   2    -0.747423192607E+02    0.55633E+01   -0.37818E+01   488   0.150E+01    0.895E+00
DAV:   3    -0.730953951742E+02    0.16469E+01   -0.95705E+00   560   0.733E+00    0.467E+00
DAV:   4    -0.723725549521E+02    0.72284E+00   -0.17237E+00   544   0.504E+00    0.156E+00
DAV:   5    -0.722735106027E+02    0.99044E-01   -0.10668E-01   496   0.171E+00    0.456E-01
DAV:   6    -0.722588924037E+02    0.14618E-01   -0.22689E-02   536   0.772E-01    0.200E-01
DAV:   7    -0.722643573501E+02   -0.54649E-02   -0.11725E-02   488   0.431E-01    0.109E-01
DAV:   8    -0.722619528254E+02    0.24045E-02   -0.57532E-03   440   0.385E-01    0.630E-02
DAV:   9    -0.722573484488E+02    0.46044E-02   -0.49613E-03   456   0.324E-01    0.353E-02
DAV:  10    -0.722587326217E+02   -0.13842E-02   -0.76371E-04   432   0.132E-01    0.208E-02
DAV:  11    -0.722638648398E+02   -0.51322E-02   -0.11813E-03   400   0.113E-01    0.102E-02
DAV:  12    -0.722652910297E+02   -0.14262E-02   -0.21645E-04   472   0.494E-02    0.845E-03
DAV:  13    -0.722666007643E+02   -0.13097E-02   -0.35676E-04   368   0.516E-02    0.491E-03
DAV:  14    -0.722667160985E+02   -0.11533E-03   -0.34657E-05   496   0.186E-02
   1 F= -.72266716E+02 E0= -.72266716E+02  d E =-.691179E-13
