 vasp.5.4.4.18Apr17-6-g9f103f2a35 (build Dec 31 2018 11:41:54) complex          
  
 executed on             LinuxIFC date 2022.10.14  05:20:12
 running on   16 total cores
 distrk:  each k-point on   16 cores,    1 groups
 distr:  one band on NCORES_PER_BAND=   2 cores,    8 groups


--------------------------------------------------------------------------------------------------------


 INCAR:
 POTCAR:   PAW_PBE C 08Apr2002                    
 POTCAR:   PAW_PBE H 15Jun2001                    

 ----------------------------------------------------------------------------- 
|                                                                             |
|  ADVICE TO THIS USER RUNNING 'VASP/VAMP'   (HEAR YOUR MASTER'S VOICE ...):  |
|                                                                             |
|      You have switched on vdW-DFT.                                          |
|      This routine was written and supplied by Jiri Klimes.                  |
|      We recommed that you carefully read and cite the following             |
|      publication                                                            |
|      J. Klimes, D.R. Bowler, A. Michelides                                  |
|        J. Phys.: Cond Matt. 22 022201 (2010)                                |
|      J. Klimes, D.R. Bowler, A. Michelides                                  |
|        Phys. Rev. B. 83, 195131 (2011)                                      |
|      and references therein.                                                |
|                                                                             |
 ----------------------------------------------------------------------------- 

 POTCAR:   PAW_PBE C 08Apr2002                    
   VRHFIN =C: s2p2                                                              
   LEXCH  = PE                                                                  
   EATOM  =   147.1560 eV,   10.8157 Ry                                         
                                                                                
   TITEL  = PAW_PBE C 08Apr2002                                                 
   LULTRA =        F    use ultrasoft PP ?                                      
   IUNSCR =        0    unscreen: 0-lin 1-nonlin 2-no                           
   RPACOR =     .000    partial core radius                                     
   POMASS =   12.011; ZVAL   =    4.000    mass and valenz                      
   RCORE  =    1.500    outmost cutoff radius                                   
   RWIGS  =    1.630; RWIGS  =     .863    wigner-seitz radius (au A)           
   ENMAX  =  400.000; ENMIN  =  300.000 eV                                      
   ICORE  =        2    local potential                                         
   LCOR   =        T    correct aug charges                                     
   LPAW   =        T    paw PP                                                  
   EAUG   =  644.873                                                            
   DEXC   =     .000                                                            
   RMAX   =    2.266    core radius for proj-oper                               
   RAUG   =    1.300    factor for augmentation sphere                          
   RDEP   =    1.501    radius for radial grids                                 
   RDEPT  =    1.300    core radius for aug-charge                              
   QCUT   =   -5.516; QGAM   =   11.032    optimization parameters              
                                                                                
   Description                                                                  
     l     E      TYP  RCUT    TYP  RCUT                                        
     0   .000     23  1.200                                                     
     0   .000     23  1.200                                                     
     1   .000     23  1.500                                                     
     1  2.500     23  1.500                                                     
     2   .000      7  1.500                                                     
  local pseudopotential read in
  atomic valenz-charges read in
  non local Contribution for L=           0  read in
    real space projection operators read in
  non local Contribution for L=           0  read in
    real space projection operators read in
  non local Contribution for L=           1  read in
    real space projection operators read in
  non local Contribution for L=           1  read in
    real space projection operators read in
    PAW grid and wavefunctions read in
 
   number of l-projection  operators is LMAX  =           4
   number of lm-projection operators is LMMAX =           8
 
 POTCAR:   PAW_PBE H 15Jun2001                    
   VRHFIN =H: ultrasoft test                                                    
   LEXCH  = PE                                                                  
   EATOM  =    12.4884 eV,     .9179 Ry                                         
                                                                                
   TITEL  = PAW_PBE H 15Jun2001                                                 
   LULTRA =        F    use ultrasoft PP ?                                      
   IUNSCR =        0    unscreen: 0-lin 1-nonlin 2-no                           
   RPACOR =     .000    partial core radius                                     
   POMASS =    1.000; ZVAL   =    1.000    mass and valenz                      
   RCORE  =    1.100    outmost cutoff radius                                   
   RWIGS  =     .700; RWIGS  =     .370    wigner-seitz radius (au A)           
   ENMAX  =  250.000; ENMIN  =  200.000 eV                                      
   RCLOC  =     .701    cutoff for local pot                                    
   LCOR   =        T    correct aug charges                                     
   LPAW   =        T    paw PP                                                  
   EAUG   =  400.000                                                            
   RMAX   =    2.174    core radius for proj-oper                               
   RAUG   =    1.200    factor for augmentation sphere                          
   RDEP   =    1.112    radius for radial grids                                 
   QCUT   =   -5.749; QGAM   =   11.498    optimization parameters              
                                                                                
   Description                                                                  
     l     E      TYP  RCUT    TYP  RCUT                                        
     0   .000     23  1.100                                                     
     0   .500     23  1.100                                                     
     1  -.300     23  1.100                                                     
  local pseudopotential read in
  atomic valenz-charges read in
  non local Contribution for L=           0  read in
    real space projection operators read in
  non local Contribution for L=           0  read in
    real space projection operators read in
  non local Contribution for L=           1  read in
    real space projection operators read in
    PAW grid and wavefunctions read in
 
   number of l-projection  operators is LMAX  =           3
   number of lm-projection operators is LMMAX =           5
 
 Optimization of the real space projectors (new method)

 maximal supplied QI-value         = 25.13
 optimisation between [QCUT,QGAM] = [ 10.05, 20.36] = [ 28.30,116.06] Ry 
 Optimized for a Real-space Cutoff    1.38 Angstroem

   l    n(q)    QCUT    max X(q) W(low)/X(q) W(high)/X(q)  e(spline) 
   0      8    10.053     5.582    0.33E-04    0.15E-04    0.75E-07
   0      8    10.053    69.432    0.23E-03    0.38E-03    0.25E-06
   1      8    10.053     2.780    0.76E-04    0.11E-03    0.15E-06
   1      8    10.053     4.549    0.19E-03    0.19E-03    0.27E-06
 Optimization of the real space projectors (new method)

 maximal supplied QI-value         = 34.20
 optimisation between [QCUT,QGAM] = [  9.92, 20.18] = [ 27.55,114.04] Ry 
 Optimized for a Real-space Cutoff    1.34 Angstroem

   l    n(q)    QCUT    max X(q) W(low)/X(q) W(high)/X(q)  e(spline) 
   0      8     9.919     4.436    0.31E-04    0.59E-04    0.66E-07
   0      8     9.919    16.131    0.16E-03    0.20E-03    0.35E-06
   1      8     9.919     4.654    0.19E-03    0.46E-03    0.40E-06

 ----------------------------------------------------------------------------- 
|                                                                             |
|  ADVICE TO THIS USER RUNNING 'VASP/VAMP'   (HEAR YOUR MASTER'S VOICE ...):  |
|                                                                             |
|      You enforced a specific xc-type in the INCAR file,                     |
|      a different type was found on the POTCAR file                          |
|          I HOPE YOU KNOW, WHAT YOU ARE  DOING                               |
|                                                                             |
 ----------------------------------------------------------------------------- 

 PAW_PBE C 08Apr2002                    :
 energy of atom  1       EATOM= -147.1560
 kinetic energy error for atom=    0.0288 (will be added to EATOM!!)
 PAW_PBE H 15Jun2001                    :
 energy of atom  2       EATOM=  -12.4884
 kinetic energy error for atom=    0.0098 (will be added to EATOM!!)
 
 
 POSCAR:  C  H                                   
  positions in cartesian coordinates
  No initial velocities read in
 exchange correlation table for  LEXCH =       17
   RHO(1)=    0.500       N(1)  =     2000
   RHO(2)=  100.500       N(2)  =     4000

 VTST: version 3.2, (02/03/18)

 CHAIN: initializing optimizer
 
 OPT: Using VASP Dynamics algorithm
 CHAIN: Read ICHAIN            0
 
 POSCAR:  C  H                                   
  positions in cartesian coordinates
  No initial velocities read in
 


--------------------------------------------------------------------------------------------------------


 ion  position               nearest neighbor table
   1  0.498  0.379  0.361-   7 1.08   6 1.08   3 1.36
   2  0.334  0.643  0.363-  10 1.09  12 1.09   8 1.09   3 1.49
   3  0.353  0.505  0.375-   9 1.09   1 1.36   2 1.49
   4  0.588  0.420  0.440-  11 1.09  13 1.09  14 1.09
   5  0.313  0.443  0.311-
   6  0.613  0.372  0.340-   1 1.08
   7  0.499  0.284  0.370-   1 1.08
   8  0.222  0.696  0.336-   2 1.09
   9  0.239  0.506  0.395-   3 1.09
  10  0.462  0.632  0.347-   2 1.09
  11  0.619  0.320  0.456-   4 1.09
  12  0.296  0.708  0.396-   2 1.09
  13  0.709  0.424  0.427-   4 1.09
  14  0.494  0.508  0.463-   4 1.09
 
  LATTYP: Found a simple monoclinic cell.
 ALAT       =    11.0874343290
 B/A-ratio  =     2.4162162653
 C/A-ratio  =     1.5206906326
 COS(beta)  =    -0.9041944302
  
  Lattice vectors:
  
 A1 = (  -5.5437171645,  -9.6019997917,   0.0000000000)
 A2 = (   0.0000000000,   0.0000000000, -26.7896391657)
 A3 = (  13.8592929113,   9.6019997917,   0.0000000000)


Analysis of symmetry for initial positions (statically):
=====================================================================
 Subroutine PRICEL returns:
 Original cell was already a primitive cell.
 

 Routine SETGRP: Setting up the symmetry group for a 
 simple monoclinic supercell.


 Subroutine GETGRP returns: Found  1 space group operations
 (whereof  1 operations were pure point group operations)
 out of a pool of  4 trial point group operations.


The static configuration has the point symmetry C_1 .


Analysis of symmetry for dynamics (positions and initial velocities):
=====================================================================
 Subroutine PRICEL returns:
 Original cell was already a primitive cell.
 

 Routine SETGRP: Setting up the symmetry group for a 
 simple monoclinic supercell.


 Subroutine GETGRP returns: Found  1 space group operations
 (whereof  1 operations were pure point group operations)
 out of a pool of  4 trial point group operations.


The dynamic configuration has the point symmetry C_1 .


 Subroutine INISYM returns: Found  1 space group operations
 (whereof  1 operations are pure point group operations),
 and found     1 'primitive' translations

 
 
 KPOINTS: KPOINTS created by Atomic Simulation Env

Automatic generation of k-mesh.
Space group operators:
 irot       det(A)        alpha          n_x          n_y          n_z        tau_x        tau_y        tau_z
    1     1.000000     0.000000     1.000000     0.000000     0.000000     0.000000     0.000000     0.000000
 
 Subroutine IBZKPT returns following result:
 ===========================================
 
 Found      8 irreducible k-points:
 
 Following reciprocal coordinates:
            Coordinates               Weight
  0.125000  0.125000  0.000000      2.000000
  0.375000  0.125000  0.000000      2.000000
 -0.375000  0.125000  0.000000      2.000000
 -0.125000  0.125000  0.000000      2.000000
  0.125000  0.375000  0.000000      2.000000
  0.375000  0.375000  0.000000      2.000000
 -0.375000  0.375000  0.000000      2.000000
 -0.125000  0.375000  0.000000      2.000000
 
 Following cartesian coordinates:
            Coordinates               Weight
  0.015032  0.004339  0.000000      2.000000
  0.045096 -0.013018  0.000000      2.000000
 -0.045096  0.039054  0.000000      2.000000
 -0.015032  0.021697  0.000000      2.000000
  0.015032  0.030376  0.000000      2.000000
  0.045096  0.013018  0.000000      2.000000
 -0.045096  0.065091  0.000000      2.000000
 -0.015032  0.047733  0.000000      2.000000
 


--------------------------------------------------------------------------------------------------------




 Dimension of arrays:
   k-points           NKPTS =      8   k-points in BZ     NKDIM =      8   number of bands    NBANDS=     24
   number of dos      NEDOS =    301   number of ions     NIONS =     14
   non local maximal  LDIM  =      4   non local SUM 2l+1 LMDIM =      8
   total plane-waves  NPLWV = 699840
   max r-space proj   IRMAX =   3655   max aug-charges    IRDMAX=  31083
   dimension x,y,z NGX =    54 NGY =   72 NGZ =  180
   dimension x,y,z NGXF=   108 NGYF=  144 NGZF=  360
   support grid    NGXF=   216 NGYF=  288 NGZF=  720
   ions per type =               4  10
   NGX,Y,Z   is equivalent  to a cutoff of  10.80, 10.80, 11.17 a.u.
   NGXF,Y,Z  is equivalent  to a cutoff of  21.59, 21.59, 22.34 a.u.

 SYSTEM =  unknown system                          
 POSCAR =   C  H                                   

 Startparameter for this run:
   NWRITE =      2    write-flag & timer
   PREC   = acc       normal or accurate (medium, high low for compatibility)
   ISTART =      1    job   : 0-new  1-cont  2-samecut
   ICHARG =      2    charge: 1-file 2-atom 10-const
   ISPIN  =      1    spin polarized calculation?
   LNONCOLLINEAR =      F non collinear calculations
   LSORBIT =      F    spin-orbit coupling
   INIWAV =      1    electr: 0-lowe 1-rand  2-diag
   LASPH  =      F    aspherical Exc in radial PAW
   METAGGA=      F    non-selfconsistent MetaGGA calc.

 Electronic Relaxation 1
   ENCUT  =  400.0 eV  29.40 Ry    5.42 a.u.  13.56 18.08 43.69*2*pi/ulx,y,z
   ENINI  =  400.0     initial cutoff
   ENAUG  =  644.9 eV  augmentation charge cutoff
   NELM   =    100;   NELMIN=  2; NELMDL=  0     # of ELM steps 
   EDIFF  = 0.1E-02   stopping-criterion for ELM
   LREAL  =      T    real-space projection
   NLSPLINE    = F    spline interpolate recip. space projectors
   LCOMPAT=      F    compatible to vasp.4.4
   GGA_COMPAT  = T    GGA compatible to vasp.4.4-vasp.4.6
   LMAXPAW     = -100 max onsite density
   LMAXMIX     =    2 max onsite mixed and CHGCAR
   VOSKOWN=      0    Vosko Wilk Nusair interpolation
   ROPT   =   -0.00025  -0.00025
 Ionic relaxation
   EDIFFG = 0.1E-01   stopping-criterion for IOM
   NSW    =      0    number of steps for IOM
   NBLOCK =      1;   KBLOCK =      1    inner block; outer block 
   IBRION =     -1    ionic relax: 0-MD 1-quasi-New 2-CG
   NFREE  =      0    steps in history (QN), initial steepest desc. (CG)
   ISIF   =      2    stress and relaxation
   IWAVPR =     10    prediction:  0-non 1-charg 2-wave 3-comb
   ISYM   =      2    0-nonsym 1-usesym 2-fastsym
   LCORR  =      T    Harris-Foulkes like correction to forces

   POTIM  = 0.5000    time-step for ionic-motion
   TEIN   =    0.0    initial temperature
   TEBEG  =    0.0;   TEEND  =   0.0 temperature during run
   SMASS  =  -3.00    Nose mass-parameter (am)
   estimated Nose-frequenzy (Omega)   =  0.10E-29 period in steps =****** mass=  -0.158E-26a.u.
   SCALEE = 1.0000    scale energy and forces
   NPACO  =    256;   APACO  = 16.0  distance and # of slots for P.C.
   PSTRESS=    0.0 pullay stress

  Mass of Ions in am
   POMASS =  12.01  1.00
  Ionic Valenz
   ZVAL   =   4.00  1.00
  Atomic Wigner-Seitz radii
   RWIGS  =  -1.00 -1.00
  virtual crystal weights 
   VCA    =   1.00  1.00
   NELECT =      26.0000    total number of electrons
   NUPDOWN=      -1.0000    fix difference up-down

 DOS related values:
   EMIN   =  10.00;   EMAX   =-10.00  energy-range for DOS
   EFERMI =   0.00
   ISMEAR =     0;   SIGMA  =   0.05  broadening in eV -4-tet -1-fermi 0-gaus

 Electronic relaxation 2 (details)
   IALGO  =     38    algorithm
   LDIAG  =      T    sub-space diagonalisation (order eigenvalues)
   LSUBROT=      F    optimize rotation matrix (better conditioning)
   TURBO    =      0    0=normal 1=particle mesh
   IRESTART =      0    0=no restart 2=restart with 2 vectors
   NREBOOT  =      0    no. of reboots
   NMIN     =      0    reboot dimension
   EREF     =   0.00    reference energy to select bands
   IMIX   =      4    mixing-type and parameters
     AMIX     =   0.40;   BMIX     =  1.00
     AMIX_MAG =   1.60;   BMIX_MAG =  1.00
     AMIN     =   0.10
     WC   =   100.;   INIMIX=   1;  MIXPRE=   1;  MAXMIX= -45

 Intra band minimization:
   WEIMIN = 0.0000     energy-eigenvalue tresh-hold
   EBREAK =  0.10E-04  absolut break condition
   DEPER  =   0.30     relativ break condition  

   TIME   =   0.40     timestep for ELM

  volume/ion in A,a.u.               =     152.79      1031.07
  Fermi-wavevector in a.u.,A,eV,Ry     =   0.376408  0.711308  1.927715  0.141683
  Thomas-Fermi vector in A             =   1.308228
 
 Write flags
   LWAVE        =      T    write WAVECAR
   LDOWNSAMPLE  =      F    k-point downsampling of WAVECAR
   LCHARG       =      F    write CHGCAR
   LVTOT        =      F    write LOCPOT, total local potential
   LVHAR        =      F    write LOCPOT, Hartree potential only
   LELF         =      F    write electronic localiz. function (ELF)
   LORBIT       =      0    0 simple, 1 ext, 2 COOP (PROOUT), +10 PAW based schemes


 Dipole corrections
   LMONO  =      F    monopole corrections only (constant potential shift)
   LDIPOL =      F    correct potential (dipole corrections)
   IDIPOL =      0    1-x, 2-y, 3-z, 4-all directions 
   EPSILON=  1.0000000 bulk dielectric constant

 Exchange correlation treatment:
   GGA     =    BF    GGA type
   LEXCH   =    17    internal setting for exchange type
   VOSKOWN=      0    Vosko Wilk Nusair interpolation
   LHFCALC =     F    Hartree Fock is set to
   LHFONE  =     F    Hartree Fock one center treatment
   AEXX    =    0.0000 exact exchange contribution

 vdW DFT:
   LUSE_VDW   =     T    switch on vdW DFT
   Zab_VDW    =******    correlation parameter
   PARAM1     =0.1234
   PARAM2     =1.0000
   PARAM3     =0.0000
   -- rVV10 --
   BPARAM     = 6.3000
   CPARAM     = 0.0093

 Linear response parameters
   LEPSILON=     F    determine dielectric tensor
   LRPA    =     F    only Hartree local field effects (RPA)
   LNABLA  =     F    use nabla operator in PAW spheres
   LVEL    =     F    velocity operator in full k-point grid
   LINTERFAST=   F  fast interpolation
   KINTER  =     0    interpolate to denser k-point grid
   CSHIFT  =0.1000    complex shift for real part using Kramers Kronig
   OMEGAMAX=  -1.0    maximum frequency
   DEG_THRESHOLD= 0.2000000E-02 threshold for treating states as degnerate
   RTIME   =   -0.100 relaxation time in fs
  (WPLASMAI=    0.000 imaginary part of plasma frequency in eV, 0.658/RTIME)
   DFIELD  = 0.0000000 0.0000000 0.0000000 field for delta impulse in time
 
 Orbital magnetization related:
   ORBITALMAG=     F  switch on orbital magnetization
   LCHIMAG   =     F  perturbation theory with respect to B field
   DQ        =  0.001000  dq finite difference perturbation B field
   LLRAUG    =     F  two centre corrections for induced B field



--------------------------------------------------------------------------------------------------------


 Static calculation
 charge density and potential will be updated during run
 non-spin polarized calculation
 Variant of blocked Davidson
 Davidson routine will perform the subspace rotation
 perform sub-space diagonalisation
    after iterative eigenvector-optimisation
 modified Broyden-mixing scheme, WC =      100.0
 initial mixing is a Kerker type mixing with AMIX =  0.4000 and BMIX =      1.0000
 Hartree-type preconditioning will be used
 using additional bands           11
 real space projection scheme for non local part
 calculate Harris-corrections to forces 
   (improved forces if not selfconsistent)
 use gradient corrections 
 use of overlap-Matrix (Vanderbilt PP)
 Gauss-broadening in eV      SIGMA  =   0.05


--------------------------------------------------------------------------------------------------------


  energy-cutoff  :      400.00
  volume of cell :     2139.05
      direct lattice vectors                 reciprocal lattice vectors
     8.315575747  0.000000000  0.000000000     0.120256255 -0.069429981  0.000000000
     5.543717165  9.601999792  0.000000000     0.000000000  0.104144972  0.000000000
     0.000000000  0.000000000 26.789639166     0.000000000  0.000000000  0.037327864

  length of vectors
     8.315575747 11.087434329 26.789639166     0.138859963  0.104144972  0.037327864


 
 old parameters found on file WAVECAR:
  energy-cutoff  :      400.00
  volume of cell :     2139.05
      direct lattice vectors                 reciprocal lattice vectors
     8.315575747  0.000000000  0.000000000     0.120256255 -0.069429981  0.000000000
     5.543717165  9.601999792  0.000000000     0.000000000  0.104144972  0.000000000
     0.000000000  0.000000000 26.789639166     0.000000000  0.000000000  0.037327864

  length of vectors

 
 k-points in units of 2pi/SCALE and weight: KPOINTS created by Atomic Simulation Env
   0.01503203  0.00433937  0.00000000       0.125
   0.04509610 -0.01301812  0.00000000       0.125
  -0.04509610  0.03905436  0.00000000       0.125
  -0.01503203  0.02169687  0.00000000       0.125
   0.01503203  0.03037562  0.00000000       0.125
   0.04509610  0.01301812  0.00000000       0.125
  -0.04509610  0.06509061  0.00000000       0.125
  -0.01503203  0.04773311  0.00000000       0.125
 
 k-points in reciprocal lattice and weights: KPOINTS created by Atomic Simulation Env
   0.12500000  0.12500000  0.00000000       0.125
   0.37500000  0.12500000  0.00000000       0.125
  -0.37500000  0.12500000  0.00000000       0.125
  -0.12500000  0.12500000  0.00000000       0.125
   0.12500000  0.37500000  0.00000000       0.125
   0.37500000  0.37500000  0.00000000       0.125
  -0.37500000  0.37500000  0.00000000       0.125
  -0.12500000  0.37500000  0.00000000       0.125
 
 position of ions in fractional coordinates (direct lattice) 
   0.49767551  0.37948032  0.36110789
   0.33397048  0.64306188  0.36292575
   0.35251850  0.50537493  0.37467470
   0.58757059  0.41986670  0.43962892
   0.31307173  0.44346387  0.31097433
   0.61286231  0.37219018  0.33987990
   0.49891332  0.28402938  0.37000013
   0.22217817  0.69635598  0.33563199
   0.23900093  0.50569674  0.39485041
   0.46184818  0.63214019  0.34735556
   0.61875795  0.32035931  0.45562764
   0.29574658  0.70802439  0.39640698
   0.70943858  0.42384192  0.42726219
   0.49390791  0.50843888  0.46261915
 
 position of ions in cartesian coordinates  (Angst):
   6.24219000  3.64377000  9.67395000
   6.34211000  6.17468000  9.72265000
   5.73305000  4.85261000 10.03740000
   7.21361000  4.03156000 11.77750000
   5.06181000  4.25814000  8.33089000
   7.15962000  3.57377000  9.10526000
   5.72333000  2.72725000  9.91217000
   5.70794000  6.68641000  8.99146000
   4.79087000  4.85570000 10.57790000
   7.34494000  6.06981000  9.30553000
   6.92131000  3.07609000 12.20610000
   6.38439000  6.79845000 10.61960000
   8.24905000  4.06973000 11.44620000
   6.92577000  4.88203000 12.39340000
 


--------------------------------------------------------------------------------------------------------


 k-point  1 :   0.1250 0.1250 0.0000  plane waves:   38866
 k-point  2 :   0.3750 0.1250 0.0000  plane waves:   38821
 k-point  3 :  -0.3750 0.1250 0.0000  plane waves:   38806
 k-point  4 :  -0.1250 0.1250 0.0000  plane waves:   38864
 k-point  5 :   0.1250 0.3750 0.0000  plane waves:   38862
 k-point  6 :   0.3750 0.3750 0.0000  plane waves:   38888
 k-point  7 :  -0.3750 0.3750 0.0000  plane waves:   38838
 k-point  8 :  -0.1250 0.3750 0.0000  plane waves:   38891

 maximum and minimum number of plane-waves per node :     19465    19374

 maximum number of plane-waves:     38891
 maximum index in each direction: 
   IXMAX=   13   IYMAX=   17   IZMAX=   43
   IXMIN=  -13   IYMIN=  -18   IZMIN=  -43


 real space projection operators:
  total allocation   :       2125.21 KBytes
  max/ min on nodes  :       1064.66       1060.55


 parallel 3D FFT for wavefunctions:
    minimum data exchange during FFTs selected (reduces bandwidth)
 parallel 3D FFT for charge:
    minimum data exchange during FFTs selected (reduces bandwidth)


 total amount of memory used by VASP MPI-rank0   137028. kBytes
=======================================================================

   base      :      30000. kBytes
   nonlr-proj:       2171. kBytes
   fftplans  :      62912. kBytes
   grid      :      34429. kBytes
   one-center:         21. kBytes
   wavefun   :       7495. kBytes
 
     INWAV:  cpu time    0.3001: real time    0.3062
 Broyden mixing: mesh for mixing (old mesh)
   NGX = 27   NGY = 37   NGZ = 87
  (NGX  =108   NGY  =144   NGZ  =360)
  gives a total of  86913 points

 initial charge density was supplied:
 charge density of overlapping atoms calculated
 number of electron      26.0000000 magnetization 
 keeping initial charge density in first step


--------------------------------------------------------------------------------------------------------


 Maximum index for non-local projection operator         1762
 Maximum index for augmentation-charges         1961 (set IRDMAX)


--------------------------------------------------------------------------------------------------------


 First call to EWALD:  gamma=   0.138
 Maximum number of real-space cells 5x 4x 2
 Maximum number of reciprocal cells 2x 2x 5

    FEWALD:  cpu time    0.0015: real time    0.0015


--------------------------------------- Iteration      1(   1)  ---------------------------------------


vdW kernel read from vdw_kernel.bindat
  0.0000  0.2424  0.5071  0.7962  1.1119  1.4567  1.8333  2.2446  2.6937  3.1842
  3.7199  4.3049  4.9438  5.6415  6.4036  7.2358  8.1446  9.1372 10.2212 11.4050
 12.6979 14.1099 15.6519 17.3360 19.1751 21.1837 23.3773 25.7729 28.3892 31.2465
 34.3669 37.7748 41.4965 45.5611 50.0000
 
    POTLOK:  cpu time   11.3106: real time   11.3680
    SETDIJ:  cpu time    0.1156: real time    0.1159
     EDDAV:  cpu time    2.4994: real time    2.5075
       DOS:  cpu time    0.0002: real time    0.0002
    CHARGE:  cpu time    0.2743: real time    0.2749
    MIXING:  cpu time    0.0072: real time    0.0073
    --------------------------------------------
      LOOP:  cpu time   14.2073: real time   14.2738

 eigenvalue-minimisations  :   520
 total energy-change (2. order) :-0.8030566E+02  (-0.3133723E+01)
 number of electron      26.0000000 magnetization 
 augmentation part        0.6639154 magnetization 

 Broyden mixing:
  rms(total) = 0.14278E+01    rms(broyden)= 0.14274E+01
  rms(prec ) = 0.15337E+01
  weight for this iteration     100.00

 Free energy of the ion-electron system (eV)
  ---------------------------------------------------
  alpha Z        PSCENC =         1.28650428
  Ewald energy   TEWEN  =      1653.58271595
  -Hartree energ DENC   =     -2099.04514882
  -exchange      EXHF   =         0.00000000
  -V(xc)+E(xc)   XCENC  =        77.66336356
  PAW double counting   =       152.91373464     -159.42092291
  entropy T*S    EENTRO =        -0.00000000
  eigenvalues    EBANDS =      -427.46174045
  atomic energy  EATOM  =       720.17582891
  Solvation  Ediel_sol  =         0.00000000
  ---------------------------------------------------
  free energy    TOTEN  =       -80.30566483 eV

  energy without entropy =      -80.30566483  energy(sigma->0) =      -80.30566483


--------------------------------------------------------------------------------------------------------




--------------------------------------- Iteration      1(   2)  ---------------------------------------


    POTLOK:  cpu time   10.8724: real time   10.9015
    SETDIJ:  cpu time    0.1143: real time    0.1145
     EDDAV:  cpu time    2.3749: real time    2.3805
       DOS:  cpu time    0.0002: real time    0.0002
    CHARGE:  cpu time    0.2743: real time    0.2749
    MIXING:  cpu time    0.0076: real time    0.0077
    --------------------------------------------
      LOOP:  cpu time   13.6436: real time   13.6792

 eigenvalue-minimisations  :   488
 total energy-change (2. order) : 0.5563346E+01  (-0.3781766E+01)
 number of electron      26.0000000 magnetization 
 augmentation part        0.5852546 magnetization 

 Broyden mixing:
  rms(total) = 0.89459E+00    rms(broyden)= 0.89403E+00
  rms(prec ) = 0.95570E+00
  weight for this iteration     100.00

 eigenvalues of (default mixing * dielectric matrix)
  average eigenvalue GAMMA=   0.8596
  0.8596

 Free energy of the ion-electron system (eV)
  ---------------------------------------------------
  alpha Z        PSCENC =         1.28650428
  Ewald energy   TEWEN  =      1653.58271595
  -Hartree energ DENC   =     -2156.17743637
  -exchange      EXHF   =         0.00000000
  -V(xc)+E(xc)   XCENC  =        80.72001891
  PAW double counting   =       236.07330346     -242.73627779
  entropy T*S    EENTRO =        -0.00000000
  eigenvalues    EBANDS =      -367.66697662
  atomic energy  EATOM  =       720.17582891
  Solvation  Ediel_sol  =         0.00000000
  ---------------------------------------------------
  free energy    TOTEN  =       -74.74231926 eV

  energy without entropy =      -74.74231926  energy(sigma->0) =      -74.74231926


--------------------------------------------------------------------------------------------------------




--------------------------------------- Iteration      1(   3)  ---------------------------------------


    POTLOK:  cpu time   10.8282: real time   10.8580
    SETDIJ:  cpu time    0.1086: real time    0.1172
     EDDAV:  cpu time    2.6257: real time    2.6511
       DOS:  cpu time    0.0002: real time    0.0002
    CHARGE:  cpu time    0.2713: real time    0.2719
    MIXING:  cpu time    0.0077: real time    0.0077
    --------------------------------------------
      LOOP:  cpu time   13.8418: real time   13.9062

 eigenvalue-minimisations  :   560
 total energy-change (2. order) : 0.1646924E+01  (-0.9570482E+00)
 number of electron      26.0000000 magnetization 
 augmentation part        0.5836703 magnetization 

 Broyden mixing:
  rms(total) = 0.46697E+00    rms(broyden)= 0.46673E+00
  rms(prec ) = 0.49304E+00
  weight for this iteration     100.00

 eigenvalues of (default mixing * dielectric matrix)
  average eigenvalue GAMMA=   1.2333
  1.8155  0.6510

 Free energy of the ion-electron system (eV)
  ---------------------------------------------------
  alpha Z        PSCENC =         1.28650428
  Ewald energy   TEWEN  =      1653.58271595
  -Hartree energ DENC   =     -2170.60861132
  -exchange      EXHF   =         0.00000000
  -V(xc)+E(xc)   XCENC  =        81.85461566
  PAW double counting   =       263.46844654     -270.14293183
  entropy T*S    EENTRO =        -0.00000000
  eigenvalues    EBANDS =      -352.71196336
  atomic energy  EATOM  =       720.17582891
  Solvation  Ediel_sol  =         0.00000000
  ---------------------------------------------------
  free energy    TOTEN  =       -73.09539517 eV

  energy without entropy =      -73.09539517  energy(sigma->0) =      -73.09539517


--------------------------------------------------------------------------------------------------------




--------------------------------------- Iteration      1(   4)  ---------------------------------------


    POTLOK:  cpu time   10.8457: real time   10.8718
    SETDIJ:  cpu time    0.1149: real time    0.1152
     EDDAV:  cpu time    2.6126: real time    2.6188
       DOS:  cpu time    0.0002: real time    0.0002
    CHARGE:  cpu time    0.2736: real time    0.2743
    MIXING:  cpu time    0.0074: real time    0.0074
    --------------------------------------------
      LOOP:  cpu time   13.8545: real time   13.8877

 eigenvalue-minimisations  :   544
 total energy-change (2. order) : 0.7228402E+00  (-0.1723744E+00)
 number of electron      26.0000000 magnetization 
 augmentation part        0.5618652 magnetization 

 Broyden mixing:
  rms(total) = 0.15617E+00    rms(broyden)= 0.15611E+00
  rms(prec ) = 0.16543E+00
  weight for this iteration     100.00

 eigenvalues of (default mixing * dielectric matrix)
  average eigenvalue GAMMA=   1.3807
  1.9868  1.5145  0.6408

 Free energy of the ion-electron system (eV)
  ---------------------------------------------------
  alpha Z        PSCENC =         1.28650428
  Ewald energy   TEWEN  =      1653.58271595
  -Hartree energ DENC   =     -2196.68543918
  -exchange      EXHF   =         0.00000000
  -V(xc)+E(xc)   XCENC  =        83.79802764
  PAW double counting   =       306.33975386     -313.02204250
  entropy T*S    EENTRO =        -0.00000000
  eigenvalues    EBANDS =      -327.84790392
  atomic energy  EATOM  =       720.17582891
  Solvation  Ediel_sol  =         0.00000000
  ---------------------------------------------------
  free energy    TOTEN  =       -72.37255495 eV

  energy without entropy =      -72.37255495  energy(sigma->0) =      -72.37255495


--------------------------------------------------------------------------------------------------------




--------------------------------------- Iteration      1(   5)  ---------------------------------------


    POTLOK:  cpu time   10.8789: real time   10.9307
    SETDIJ:  cpu time    0.1138: real time    0.1141
     EDDAV:  cpu time    2.3853: real time    2.3909
       DOS:  cpu time    0.0001: real time    0.0001
    CHARGE:  cpu time    0.2718: real time    0.2724
    MIXING:  cpu time    0.0071: real time    0.0071
    --------------------------------------------
      LOOP:  cpu time   13.6571: real time   13.7154

 eigenvalue-minimisations  :   496
 total energy-change (2. order) : 0.9904435E-01  (-0.1066828E-01)
 number of electron      26.0000000 magnetization 
 augmentation part        0.5609489 magnetization 

 Broyden mixing:
  rms(total) = 0.45563E-01    rms(broyden)= 0.45542E-01
  rms(prec ) = 0.53684E-01
  weight for this iteration     100.00

 eigenvalues of (default mixing * dielectric matrix)
  average eigenvalue GAMMA=   1.4532
  2.3294  0.6415  1.1075  1.7346

 Free energy of the ion-electron system (eV)
  ---------------------------------------------------
  alpha Z        PSCENC =         1.28650428
  Ewald energy   TEWEN  =      1653.58271595
  -Hartree energ DENC   =     -2202.22844916
  -exchange      EXHF   =         0.00000000
  -V(xc)+E(xc)   XCENC  =        84.25214688
  PAW double counting   =       311.15166967     -317.80838896
  entropy T*S    EENTRO =        -0.00000000
  eigenvalues    EBANDS =      -322.68553818
  atomic energy  EATOM  =       720.17582891
  Solvation  Ediel_sol  =         0.00000000
  ---------------------------------------------------
  free energy    TOTEN  =       -72.27351060 eV

  energy without entropy =      -72.27351060  energy(sigma->0) =      -72.27351060


--------------------------------------------------------------------------------------------------------




--------------------------------------- Iteration      1(   6)  ---------------------------------------


    POTLOK:  cpu time   10.8451: real time   10.8756
    SETDIJ:  cpu time    0.1143: real time    0.1145
     EDDAV:  cpu time    2.5352: real time    2.5412
       DOS:  cpu time    0.0001: real time    0.0001
    CHARGE:  cpu time    0.2700: real time    0.2706
    MIXING:  cpu time    0.0084: real time    0.0085
    --------------------------------------------
      LOOP:  cpu time   13.7732: real time   13.8105

 eigenvalue-minimisations  :   536
 total energy-change (2. order) : 0.1461820E-01  (-0.2268916E-02)
 number of electron      26.0000000 magnetization 
 augmentation part        0.5606159 magnetization 

 Broyden mixing:
  rms(total) = 0.20031E-01    rms(broyden)= 0.20022E-01
  rms(prec ) = 0.26901E-01
  weight for this iteration     100.00

 eigenvalues of (default mixing * dielectric matrix)
  average eigenvalue GAMMA=   1.4956
  0.6425  2.1769  2.1769  1.0126  1.4692

 Free energy of the ion-electron system (eV)
  ---------------------------------------------------
  alpha Z        PSCENC =         1.28650428
  Ewald energy   TEWEN  =      1653.58271595
  -Hartree energ DENC   =     -2205.99485018
  -exchange      EXHF   =         0.00000000
  -V(xc)+E(xc)   XCENC  =        84.43827552
  PAW double counting   =       312.54908654     -319.19480033
  entropy T*S    EENTRO =        -0.00000000
  eigenvalues    EBANDS =      -319.10165311
  atomic energy  EATOM  =       720.17582891
  Solvation  Ediel_sol  =         0.00000000
  ---------------------------------------------------
  free energy    TOTEN  =       -72.25889240 eV

  energy without entropy =      -72.25889240  energy(sigma->0) =      -72.25889240


--------------------------------------------------------------------------------------------------------




--------------------------------------- Iteration      1(   7)  ---------------------------------------


    POTLOK:  cpu time   10.8934: real time   10.9245
    SETDIJ:  cpu time    0.1176: real time    0.1178
     EDDAV:  cpu time    2.3563: real time    2.3620
       DOS:  cpu time    0.0002: real time    0.0002
    CHARGE:  cpu time    0.2704: real time    0.2710
    MIXING:  cpu time    0.0079: real time    0.0079
    --------------------------------------------
      LOOP:  cpu time   13.6458: real time   13.6835

 eigenvalue-minimisations  :   488
 total energy-change (2. order) :-0.5464946E-02  (-0.1172538E-02)
 number of electron      26.0000000 magnetization 
 augmentation part        0.5598890 magnetization 

 Broyden mixing:
  rms(total) = 0.10926E-01    rms(broyden)= 0.10924E-01
  rms(prec ) = 0.16362E-01
  weight for this iteration     100.00

 eigenvalues of (default mixing * dielectric matrix)
  average eigenvalue GAMMA=   1.6246
  3.0228  2.2840  0.6427  0.9946  1.4019  1.4019

 Free energy of the ion-electron system (eV)
  ---------------------------------------------------
  alpha Z        PSCENC =         1.28650428
  Ewald energy   TEWEN  =      1653.58271595
  -Hartree energ DENC   =     -2208.23007573
  -exchange      EXHF   =         0.00000000
  -V(xc)+E(xc)   XCENC  =        84.47564997
  PAW double counting   =       312.11997921     -318.76471260
  entropy T*S    EENTRO =        -0.00000000
  eigenvalues    EBANDS =      -316.91024735
  atomic energy  EATOM  =       720.17582891
  Solvation  Ediel_sol  =         0.00000000
  ---------------------------------------------------
  free energy    TOTEN  =       -72.26435735 eV

  energy without entropy =      -72.26435735  energy(sigma->0) =      -72.26435735


--------------------------------------------------------------------------------------------------------




--------------------------------------- Iteration      1(   8)  ---------------------------------------


    POTLOK:  cpu time   10.8463: real time   10.8737
    SETDIJ:  cpu time    0.1135: real time    0.1138
     EDDAV:  cpu time    2.1669: real time    2.1721
       DOS:  cpu time    0.0002: real time    0.0002
    CHARGE:  cpu time    0.2712: real time    0.2718
    MIXING:  cpu time    0.0077: real time    0.0077
    --------------------------------------------
      LOOP:  cpu time   13.4059: real time   13.4393

 eigenvalue-minimisations  :   440
 total energy-change (2. order) : 0.2404525E-02  (-0.5753164E-03)
 number of electron      26.0000000 magnetization 
 augmentation part        0.5598632 magnetization 

 Broyden mixing:
  rms(total) = 0.63044E-02    rms(broyden)= 0.63032E-02
  rms(prec ) = 0.89781E-02
  weight for this iteration     100.00

 eigenvalues of (default mixing * dielectric matrix)
  average eigenvalue GAMMA=   1.7709
  3.8173  2.3468  1.9927  0.6429  0.9677  1.3146  1.3146

 Free energy of the ion-electron system (eV)
  ---------------------------------------------------
  alpha Z        PSCENC =         1.28650428
  Ewald energy   TEWEN  =      1653.58271595
  -Hartree energ DENC   =     -2210.29734783
  -exchange      EXHF   =         0.00000000
  -V(xc)+E(xc)   XCENC  =        84.53177394
  PAW double counting   =       311.48923053     -318.13148879
  entropy T*S    EENTRO =        -0.00000000
  eigenvalues    EBANDS =      -314.89916984
  atomic energy  EATOM  =       720.17582891
  Solvation  Ediel_sol  =         0.00000000
  ---------------------------------------------------
  free energy    TOTEN  =       -72.26195283 eV

  energy without entropy =      -72.26195283  energy(sigma->0) =      -72.26195283


--------------------------------------------------------------------------------------------------------




--------------------------------------- Iteration      1(   9)  ---------------------------------------


    POTLOK:  cpu time   10.8816: real time   10.9118
    SETDIJ:  cpu time    0.1135: real time    0.1138
     EDDAV:  cpu time    2.2265: real time    2.2318
       DOS:  cpu time    0.0002: real time    0.0002
    CHARGE:  cpu time    0.2711: real time    0.2718
    MIXING:  cpu time    0.0080: real time    0.0080
    --------------------------------------------
      LOOP:  cpu time   13.5009: real time   13.5372

 eigenvalue-minimisations  :   456
 total energy-change (2. order) : 0.4604377E-02  (-0.4961325E-03)
 number of electron      26.0000000 magnetization 
 augmentation part        0.5594370 magnetization 

 Broyden mixing:
  rms(total) = 0.35254E-02    rms(broyden)= 0.35242E-02
  rms(prec ) = 0.46376E-02
  weight for this iteration     100.00

 eigenvalues of (default mixing * dielectric matrix)
  average eigenvalue GAMMA=   1.8206
  4.7068  2.4707  1.8545  0.6430  1.4394  1.4394  0.9205  1.0907

 Free energy of the ion-electron system (eV)
  ---------------------------------------------------
  alpha Z        PSCENC =         1.28650428
  Ewald energy   TEWEN  =      1653.58271595
  -Hartree energ DENC   =     -2211.82809639
  -exchange      EXHF   =         0.00000000
  -V(xc)+E(xc)   XCENC  =        84.57181449
  PAW double counting   =       311.52826079     -318.17231698
  entropy T*S    EENTRO =        -0.00000000
  eigenvalues    EBANDS =      -313.40205951
  atomic energy  EATOM  =       720.17582891
  Solvation  Ediel_sol  =         0.00000000
  ---------------------------------------------------
  free energy    TOTEN  =       -72.25734845 eV

  energy without entropy =      -72.25734845  energy(sigma->0) =      -72.25734845


--------------------------------------------------------------------------------------------------------




--------------------------------------- Iteration      1(  10)  ---------------------------------------


    POTLOK:  cpu time   10.9164: real time   10.9433
    SETDIJ:  cpu time    0.1141: real time    0.1144
     EDDAV:  cpu time    2.1438: real time    2.1489
       DOS:  cpu time    0.0002: real time    0.0002
    CHARGE:  cpu time    0.2667: real time    0.2673
    MIXING:  cpu time    0.0141: real time    0.0142
    --------------------------------------------
      LOOP:  cpu time   13.4554: real time   13.4883

 eigenvalue-minimisations  :   432
 total energy-change (2. order) :-0.1384173E-02  (-0.7637085E-04)
 number of electron      26.0000000 magnetization 
 augmentation part        0.5594656 magnetization 

 Broyden mixing:
  rms(total) = 0.20844E-02    rms(broyden)= 0.20841E-02
  rms(prec ) = 0.27964E-02
  weight for this iteration     100.00

 eigenvalues of (default mixing * dielectric matrix)
  average eigenvalue GAMMA=   1.9473
  5.3507  2.7557  2.3806  1.7881  0.6430  1.3127  1.3127  0.9911  0.9911

 Free energy of the ion-electron system (eV)
  ---------------------------------------------------
  alpha Z        PSCENC =         1.28650428
  Ewald energy   TEWEN  =      1653.58271595
  -Hartree energ DENC   =     -2212.07999017
  -exchange      EXHF   =         0.00000000
  -V(xc)+E(xc)   XCENC  =        84.57221850
  PAW double counting   =       311.32023085     -317.96413419
  entropy T*S    EENTRO =        -0.00000000
  eigenvalues    EBANDS =      -313.15210675
  atomic energy  EATOM  =       720.17582891
  Solvation  Ediel_sol  =         0.00000000
  ---------------------------------------------------
  free energy    TOTEN  =       -72.25873262 eV

  energy without entropy =      -72.25873262  energy(sigma->0) =      -72.25873262


--------------------------------------------------------------------------------------------------------




--------------------------------------- Iteration      1(  11)  ---------------------------------------


    POTLOK:  cpu time   10.9145: real time   10.9406
    SETDIJ:  cpu time    0.1143: real time    0.1146
     EDDAV:  cpu time    2.0193: real time    2.0241
       DOS:  cpu time    0.0002: real time    0.0002
    CHARGE:  cpu time    0.2732: real time    0.2738
    MIXING:  cpu time    0.0094: real time    0.0094
    --------------------------------------------
      LOOP:  cpu time   13.3308: real time   13.3626

 eigenvalue-minimisations  :   400
 total energy-change (2. order) :-0.5132218E-02  (-0.1181270E-03)
 number of electron      26.0000000 magnetization 
 augmentation part        0.5594484 magnetization 

 Broyden mixing:
  rms(total) = 0.10172E-02    rms(broyden)= 0.10169E-02
  rms(prec ) = 0.14272E-02
  weight for this iteration     100.00

 eigenvalues of (default mixing * dielectric matrix)
  average eigenvalue GAMMA=   1.9440
  5.8784  2.9500  2.3302  1.5995  1.5995  0.6430  1.2833  1.2833  0.9362  0.9362

 Free energy of the ion-electron system (eV)
  ---------------------------------------------------
  alpha Z        PSCENC =         1.28650428
  Ewald energy   TEWEN  =      1653.58271595
  -Hartree energ DENC   =     -2212.20775406
  -exchange      EXHF   =         0.00000000
  -V(xc)+E(xc)   XCENC  =        84.57194180
  PAW double counting   =       311.31658836     -317.96026534
  entropy T*S    EENTRO =        -0.00000000
  eigenvalues    EBANDS =      -313.02942475
  atomic energy  EATOM  =       720.17582891
  Solvation  Ediel_sol  =         0.00000000
  ---------------------------------------------------
  free energy    TOTEN  =       -72.26386484 eV

  energy without entropy =      -72.26386484  energy(sigma->0) =      -72.26386484


--------------------------------------------------------------------------------------------------------




--------------------------------------- Iteration      1(  12)  ---------------------------------------


    POTLOK:  cpu time   10.8627: real time   10.9215
    SETDIJ:  cpu time    0.1139: real time    0.1142
     EDDAV:  cpu time    2.3004: real time    2.3059
       DOS:  cpu time    0.0001: real time    0.0001
    CHARGE:  cpu time    0.2713: real time    0.2720
    MIXING:  cpu time    0.0090: real time    0.0091
    --------------------------------------------
      LOOP:  cpu time   13.5576: real time   13.6228

 eigenvalue-minimisations  :   472
 total energy-change (2. order) :-0.1426190E-02  (-0.2164508E-04)
 number of electron      26.0000000 magnetization 
 augmentation part        0.5594221 magnetization 

 Broyden mixing:
  rms(total) = 0.84540E-03    rms(broyden)= 0.84521E-03
  rms(prec ) = 0.11262E-02
  weight for this iteration     100.00

 eigenvalues of (default mixing * dielectric matrix)
  average eigenvalue GAMMA=   2.0727
  6.2462  3.2968  2.7155  2.5348  1.6659  0.6430  1.3675  1.3675  0.9271  1.0174
  1.0174

 Free energy of the ion-electron system (eV)
  ---------------------------------------------------
  alpha Z        PSCENC =         1.28650428
  Ewald energy   TEWEN  =      1653.58271595
  -Hartree energ DENC   =     -2212.19947142
  -exchange      EXHF   =         0.00000000
  -V(xc)+E(xc)   XCENC  =        84.56956137
  PAW double counting   =       311.32517587     -317.96885105
  entropy T*S    EENTRO =        -0.00000000
  eigenvalues    EBANDS =      -313.03675496
  atomic energy  EATOM  =       720.17582891
  Solvation  Ediel_sol  =         0.00000000
  ---------------------------------------------------
  free energy    TOTEN  =       -72.26529103 eV

  energy without entropy =      -72.26529103  energy(sigma->0) =      -72.26529103


--------------------------------------------------------------------------------------------------------




--------------------------------------- Iteration      1(  13)  ---------------------------------------


    POTLOK:  cpu time   10.9093: real time   10.9372
    SETDIJ:  cpu time    0.1137: real time    0.1139
     EDDAV:  cpu time    1.9072: real time    1.9117
       DOS:  cpu time    0.0002: real time    0.0001
    CHARGE:  cpu time    0.2718: real time    0.2724
    MIXING:  cpu time    0.0089: real time    0.0089
    --------------------------------------------
      LOOP:  cpu time   13.2110: real time   13.2443

 eigenvalue-minimisations  :   368
 total energy-change (2. order) :-0.1309735E-02  (-0.3567573E-04)
 number of electron      26.0000000 magnetization 
 augmentation part        0.5594122 magnetization 

 Broyden mixing:
  rms(total) = 0.49131E-03    rms(broyden)= 0.49114E-03
  rms(prec ) = 0.60563E-03
  weight for this iteration     100.00

 eigenvalues of (default mixing * dielectric matrix)
  average eigenvalue GAMMA=   2.0622
  6.1992  4.6426  2.4026  2.4026  1.6024  1.6024  0.6430  1.2649  1.2649  0.9282
  0.9282  0.8658

 Free energy of the ion-electron system (eV)
  ---------------------------------------------------
  alpha Z        PSCENC =         1.28650428
  Ewald energy   TEWEN  =      1653.58271595
  -Hartree energ DENC   =     -2212.12893850
  -exchange      EXHF   =         0.00000000
  -V(xc)+E(xc)   XCENC  =        84.56406950
  PAW double counting   =       311.32562943     -317.96909663
  entropy T*S    EENTRO =        -0.00000000
  eigenvalues    EBANDS =      -313.10331372
  atomic energy  EATOM  =       720.17582891
  Solvation  Ediel_sol  =         0.00000000
  ---------------------------------------------------
  free energy    TOTEN  =       -72.26660076 eV

  energy without entropy =      -72.26660076  energy(sigma->0) =      -72.26660076


--------------------------------------------------------------------------------------------------------




--------------------------------------- Iteration      1(  14)  ---------------------------------------


    POTLOK:  cpu time   10.8726: real time   10.8987
    SETDIJ:  cpu time    0.1138: real time    0.1141
     EDDAV:  cpu time    2.3905: real time    2.3962
       DOS:  cpu time    0.0002: real time    0.0002
    --------------------------------------------
      LOOP:  cpu time   13.3771: real time   13.4091

 eigenvalue-minimisations  :   496
 total energy-change (2. order) :-0.1153342E-03  (-0.3465708E-05)
 number of electron      26.0000000 magnetization 
 augmentation part        0.5594122 magnetization 

 Free energy of the ion-electron system (eV)
  ---------------------------------------------------
  alpha Z        PSCENC =         1.28650428
  Ewald energy   TEWEN  =      1653.58271595
  -Hartree energ DENC   =     -2212.10873712
  -exchange      EXHF   =         0.00000000
  -V(xc)+E(xc)   XCENC  =        84.56357856
  PAW double counting   =       311.33012422     -317.97361567
  entropy T*S    EENTRO =        -0.00000000
  eigenvalues    EBANDS =      -313.12311523
  atomic energy  EATOM  =       720.17582891
  Solvation  Ediel_sol  =         0.00000000
  ---------------------------------------------------
  free energy    TOTEN  =       -72.26671610 eV

  energy without entropy =      -72.26671610  energy(sigma->0) =      -72.26671610


--------------------------------------------------------------------------------------------------------




 average (electrostatic) potential at core
  the test charge radii are     0.6991  0.5201
  (the norm of the test charge is              1.0000)
       1 -60.3043       2 -59.4340       3 -60.6995       4 -58.2456       5 -40.3836
       6 -43.9649       7 -43.9886       8 -43.5011       9 -44.0418      10 -43.4427
      11 -42.6304      12 -43.5594      13 -42.6427      14 -42.7017
 
 
 
 E-fermi :  -3.9587     XC(G=0):  -0.9993     alpha+bet : -0.3168


 k-point     1 :       0.1250    0.1250    0.0000
  band No.  band energies     occupation 
      1     -20.9137      2.00000
      2     -18.0979      2.00000
      3     -16.3077      2.00000
      4     -14.8409      2.00000
      5     -12.5694      2.00000
      6     -11.4059      2.00000
      7     -11.0396      2.00000
      8      -9.9525      2.00000
      9      -9.6564      2.00000
     10      -9.6067      2.00000
     11      -9.4733      2.00000
     12      -8.4804      2.00000
     13      -4.2168      2.00000
     14      -2.2000      0.00000
     15      -1.7880      0.00000
     16      -1.1713      0.00000
     17      -0.4524      0.00000
     18      -0.1782      0.00000
     19      -0.0548      0.00000
     20       0.1501      0.00000
     21       0.3272      0.00000
     22       0.4906      0.00000
     23       0.6094      0.00000
     24       0.7773      0.00000

 k-point     2 :       0.3750    0.1250    0.0000
  band No.  band energies     occupation 
      1     -20.9137      2.00000
      2     -18.0979      2.00000
      3     -16.3077      2.00000
      4     -14.8410      2.00000
      5     -12.5695      2.00000
      6     -11.4059      2.00000
      7     -11.0397      2.00000
      8      -9.9528      2.00000
      9      -9.6535      2.00000
     10      -9.6068      2.00000
     11      -9.4748      2.00000
     12      -8.4802      2.00000
     13      -4.2178      2.00000
     14      -2.1901      0.00000
     15      -1.7049      0.00000
     16      -1.0637      0.00000
     17      -0.5725      0.00000
     18      -0.2483      0.00000
     19      -0.0153      0.00000
     20       0.1829      0.00000
     21       0.4300      0.00000
     22       0.4748      0.00000
     23       0.6512      0.00000
     24       0.7610      0.00000

 k-point     3 :      -0.3750    0.1250    0.0000
  band No.  band energies     occupation 
      1     -20.9137      2.00000
      2     -18.0979      2.00000
      3     -16.3076      2.00000
      4     -14.8410      2.00000
      5     -12.5694      2.00000
      6     -11.4059      2.00000
      7     -11.0397      2.00000
      8      -9.9531      2.00000
      9      -9.6535      2.00000
     10      -9.6068      2.00000
     11      -9.4748      2.00000
     12      -8.4802      2.00000
     13      -4.2177      2.00000
     14      -2.1887      0.00000
     15      -1.6926      0.00000
     16      -0.9447      0.00000
     17      -0.5966      0.00000
     18      -0.5280      0.00000
     19       0.0308      0.00000
     20       0.2414      0.00000
     21       0.3123      0.00000
     22       0.6257      0.00000
     23       0.7069      0.00000
     24       0.9573      0.00000

 k-point     4 :      -0.1250    0.1250    0.0000
  band No.  band energies     occupation 
      1     -20.9137      2.00000
      2     -18.0980      2.00000
      3     -16.3077      2.00000
      4     -14.8409      2.00000
      5     -12.5694      2.00000
      6     -11.4059      2.00000
      7     -11.0397      2.00000
      8      -9.9528      2.00000
      9      -9.6565      2.00000
     10      -9.6067      2.00000
     11      -9.4733      2.00000
     12      -8.4804      2.00000
     13      -4.2167      2.00000
     14      -2.1981      0.00000
     15      -1.7710      0.00000
     16      -1.1374      0.00000
     17      -0.5049      0.00000
     18      -0.3491      0.00000
     19       0.0796      0.00000
     20       0.2578      0.00000
     21       0.4044      0.00000
     22       0.4968      0.00000
     23       0.5930      0.00000
     24       0.7059      0.00000

 k-point     5 :       0.1250    0.3750    0.0000
  band No.  band energies     occupation 
      1     -20.9137      2.00000
      2     -18.0979      2.00000
      3     -16.3077      2.00000
      4     -14.8409      2.00000
      5     -12.5693      2.00000
      6     -11.4059      2.00000
      7     -11.0397      2.00000
      8      -9.9528      2.00000
      9      -9.6564      2.00000
     10      -9.6067      2.00000
     11      -9.4732      2.00000
     12      -8.4804      2.00000
     13      -4.2166      2.00000
     14      -2.1978      0.00000
     15      -1.7633      0.00000
     16      -1.0895      0.00000
     17      -0.6157      0.00000
     18      -0.3398      0.00000
     19      -0.0363      0.00000
     20       0.2845      0.00000
     21       0.3257      0.00000
     22       0.5856      0.00000
     23       0.6716      0.00000
     24       0.7683      0.00000

 k-point     6 :       0.3750    0.3750    0.0000
  band No.  band energies     occupation 
      1     -20.9137      2.00000
      2     -18.0979      2.00000
      3     -16.3077      2.00000
      4     -14.8411      2.00000
      5     -12.5697      2.00000
      6     -11.4060      2.00000
      7     -11.0397      2.00000
      8      -9.9526      2.00000
      9      -9.6537      2.00000
     10      -9.6070      2.00000
     11      -9.4749      2.00000
     12      -8.4803      2.00000
     13      -4.2179      2.00000
     14      -2.1915      0.00000
     15      -1.7106      0.00000
     16      -1.0566      0.00000
     17      -0.6862      0.00000
     18      -0.1354      0.00000
     19      -0.0696      0.00000
     20       0.3069      0.00000
     21       0.4298      0.00000
     22       0.5308      0.00000
     23       0.6677      0.00000
     24       0.8196      0.00000

 k-point     7 :      -0.3750    0.3750    0.0000
  band No.  band energies     occupation 
      1     -20.9137      2.00000
      2     -18.0979      2.00000
      3     -16.3077      2.00000
      4     -14.8410      2.00000
      5     -12.5695      2.00000
      6     -11.4059      2.00000
      7     -11.0397      2.00000
      8      -9.9529      2.00000
      9      -9.6535      2.00000
     10      -9.6069      2.00000
     11      -9.4749      2.00000
     12      -8.4802      2.00000
     13      -4.2177      2.00000
     14      -2.1900      0.00000
     15      -1.6983      0.00000
     16      -0.9335      0.00000
     17      -0.7278      0.00000
     18      -0.4543      0.00000
     19      -0.0042      0.00000
     20       0.3544      0.00000
     21       0.4672      0.00000
     22       0.6173      0.00000
     23       0.7016      0.00000
     24       0.8957      0.00000

 k-point     8 :      -0.1250    0.3750    0.0000
  band No.  band energies     occupation 
      1     -20.9137      2.00000
      2     -18.0980      2.00000
      3     -16.3077      2.00000
      4     -14.8409      2.00000
      5     -12.5692      2.00000
      6     -11.4060      2.00000
      7     -11.0397      2.00000
      8      -9.9532      2.00000
      9      -9.6565      2.00000
     10      -9.6067      2.00000
     11      -9.4734      2.00000
     12      -8.4804      2.00000
     13      -4.2165      2.00000
     14      -2.1958      0.00000
     15      -1.7462      0.00000
     16      -0.9808      0.00000
     17      -0.8260      0.00000
     18      -0.2674      0.00000
     19       0.0562      0.00000
     20       0.1087      0.00000
     21       0.4677      0.00000
     22       0.5732      0.00000
     23       0.7349      0.00000
     24       0.7786      0.00000


--------------------------------------------------------------------------------------------------------


 soft charge-density along one line, spin component           1
         0         1         2         3         4         5         6         7         8         9
 total charge-density along one line
 
 pseudopotential strength for first ion, spin component:           1
 10.363   0.023   0.001   0.000  -0.000  -0.001  -0.000   0.000
  0.023  -0.001   0.000  -0.000  -0.000  -0.000  -0.000   0.000
  0.001   0.000  -4.340  -0.001   0.002  -0.018  -0.000   0.000
  0.000  -0.000  -0.001  -4.336   0.001  -0.000  -0.014   0.002
 -0.000  -0.000   0.002   0.001  -4.337   0.000   0.002  -0.016
 -0.001  -0.000  -0.018  -0.000   0.000  -0.774  -0.000   0.000
 -0.000  -0.000  -0.000  -0.014   0.002  -0.000  -0.774  -0.000
  0.000   0.000   0.000   0.002  -0.016   0.000  -0.000  -0.774
 total augmentation occupancy for first ion, spin component:           1
  1.566  -1.101   0.026   0.005  -0.012   0.018   0.004  -0.008
 -1.101   0.983  -0.094  -0.021   0.042  -0.048  -0.012   0.022
  0.026  -0.094   1.265   0.035  -0.000   0.230   0.012  -0.006
  0.005  -0.021   0.035   0.833  -0.241   0.012   0.123  -0.054
 -0.012   0.042  -0.000  -0.241   1.089  -0.006  -0.054   0.179
  0.018  -0.048   0.230   0.012  -0.006   0.045   0.004  -0.003
  0.004  -0.012   0.012   0.123  -0.054   0.004   0.019  -0.012
 -0.008   0.022  -0.006  -0.054   0.179  -0.003  -0.012   0.031


------------------------ aborting loop because EDIFF is reached ----------------------------------------


    CHARGE:  cpu time    0.2693: real time    0.2699
    FORLOC:  cpu time    0.0313: real time    0.0314
    FORNL :  cpu time    1.3433: real time    1.3465
    STRESS:  cpu time    4.1132: real time    4.1229
    FORHAR:  cpu time    0.0793: real time    0.0795
    MIXING:  cpu time    0.0098: real time    0.0098
    OFIELD:  cpu time    0.0000: real time    0.0000

  FORCE on cell =-STRESS in cart. coord.  units (eV):
  Direction    XX          YY          ZZ          XY          YZ          ZX
  --------------------------------------------------------------------------------------
  Alpha Z     1.28650     1.28650     1.28650
  Ewald    1221.12414  1411.60278  -979.14461   -33.18164   -45.16597    41.02172
  Hartree  1415.51794  1493.74522  -697.19259   -26.88899   -49.09658    86.19231
  E(xc)     -92.81752   -92.48080   -93.77102    -0.02090     0.20388    -0.92284
  Local   -2849.33420 -3114.95913  1453.33948    59.43667    96.36338  -137.47153
  n-local   -39.62607   -39.19368   -37.89898     0.04734    -0.16483     1.55491
  augment    -0.04277    -0.03215     0.01114     0.00738    -0.01329     0.05381
  Kinetic   342.71476   338.89236   352.21367     0.61562    -2.17099     9.60297
  Fock        0.00000     0.00000     0.00000     0.00000     0.00000     0.00000
  -------------------------------------------------------------------------------------
  Total      -1.17720    -1.13888    -1.15641     0.01549    -0.04439     0.03134
  in kB      -0.88174    -0.85304    -0.86617     0.01160    -0.03325     0.02348
  external pressure =       -0.87 kB  Pullay stress =        0.00 kB


 VOLUME and BASIS-vectors are now :
 -----------------------------------------------------------------------------
  energy-cutoff  :      400.00
  volume of cell :     2139.05
      direct lattice vectors                 reciprocal lattice vectors
     8.315575747  0.000000000  0.000000000     0.120256255 -0.069429981  0.000000000
     5.543717165  9.601999792  0.000000000     0.000000000  0.104144972  0.000000000
     0.000000000  0.000000000 26.789639166     0.000000000  0.000000000  0.037327864

  length of vectors
     8.315575747 11.087434329 26.789639166     0.138859963  0.104144972  0.037327864


 FORCES acting on ions
    electron-ion (+dipol)            ewald-force                    non-local-force                 convergence-correction
 -----------------------------------------------------------------------------------------------
   -.180E+02 0.132E+03 0.737E+02   0.184E+02 -.133E+03 -.740E+02   -.435E+00 0.102E+01 0.330E+00   0.735E-03 -.121E-02 0.231E-02
   -.243E+02 -.121E+03 0.411E+02   0.254E+02 0.122E+03 -.418E+02   -.104E+01 -.138E+01 0.673E+00   -.576E-03 0.720E-04 0.279E-02
   0.901E+02 -.304E+02 -.122E+02   -.903E+02 0.308E+02 0.124E+02   0.201E+00 -.433E+00 -.297E+00   0.233E-02 0.306E-02 0.173E-02
   -.356E+02 0.240E+02 -.956E+02   0.337E+02 -.238E+02 0.926E+02   0.188E+01 -.217E+00 0.299E+01   -.933E-03 -.199E-03 0.806E-03
   0.234E+02 0.593E+01 0.454E+02   -.237E+02 -.596E+01 -.459E+02   0.297E+00 0.603E-02 0.491E+00   0.764E-03 -.569E-04 0.129E-02
   -.514E+02 0.210E+02 0.471E+02   0.566E+02 -.214E+02 -.504E+02   -.524E+01 0.417E+00 0.328E+01   -.547E-03 -.435E-04 0.107E-02
   0.288E+02 0.642E+02 -.264E+01   -.318E+02 -.695E+02 0.398E+01   0.300E+01 0.529E+01 -.135E+01   0.403E-03 0.632E-06 0.627E-03
   0.312E+02 -.432E+02 0.493E+02   -.344E+02 0.459E+02 -.531E+02   0.328E+01 -.267E+01 0.388E+01   0.737E-03 -.429E-03 0.168E-02
   0.647E+02 -.317E+01 -.327E+02   -.700E+02 0.315E+01 0.358E+02   0.535E+01 0.288E-01 -.302E+01   0.393E-03 0.293E-03 0.647E-03
   -.587E+02 -.148E+02 0.339E+02   0.640E+02 0.143E+02 -.362E+02   -.534E+01 0.488E+00 0.223E+01   -.133E-02 0.616E-04 0.126E-02
   0.876E+01 0.527E+02 -.432E+02   -.103E+02 -.577E+02 0.455E+02   0.154E+01 0.504E+01 -.227E+01   -.349E-03 -.898E-03 0.398E-03
   -.418E+01 -.518E+02 -.454E+02   0.445E+01 0.551E+02 0.500E+02   -.268E+00 -.332E+01 -.468E+01   -.176E-03 -.510E-03 -.169E-03
   -.609E+02 0.271E+01 -.226E+01   0.664E+02 -.249E+01 0.530E+00   -.545E+01 -.193E+00 0.174E+01   0.121E-03 -.581E-05 0.165E-03
   0.687E+01 -.384E+02 -.573E+02   -.837E+01 0.428E+02 0.605E+02   0.149E+01 -.443E+01 -.324E+01   -.310E-03 0.736E-03 0.473E-03
 -----------------------------------------------------------------------------------------------
   0.726E+00 0.356E+00 -.754E+00   0.178E-14 0.568E-13 -.355E-13   -.727E+00 -.357E+00 0.738E+00   0.126E-02 0.875E-03 0.151E-01
 
 
 POSITION                                       TOTAL-FORCE (eV/Angst)
 -----------------------------------------------------------------------------------
      6.24219      3.64377      9.67395         0.021704      0.048240      0.052907
      6.34211      6.17468      9.72265         0.013703      0.023186     -0.000925
      5.73305      4.85261     10.03740        -0.059215     -0.034504     -0.054265
      7.21361      4.03156     11.77750         0.030238     -0.047963     -0.007720
      5.06181      4.25814      8.33089        -0.006599     -0.025898      0.003072
      7.15962      3.57377      9.10526        -0.008391     -0.000899     -0.005427
      5.72333      2.72725      9.91217        -0.011798      0.015773     -0.017775
      5.70794      6.68641      8.99146         0.006189      0.005876      0.015792
      4.79087      4.85570     10.57790         0.036780      0.013277      0.018268
      7.34494      6.06981      9.30553        -0.013457     -0.000688     -0.008768
      6.92131      3.07609     12.20610        -0.008173      0.004011      0.014364
      6.38439      6.79845     10.61960         0.006007     -0.015562     -0.012120
      8.24905      4.06973     11.44620         0.004706      0.030496      0.015776
      6.92577      4.88203     12.39340        -0.011695     -0.015345     -0.013180
 -----------------------------------------------------------------------------------
    total drift:                                0.000854     -0.000106     -0.000748


--------------------------------------------------------------------------------------------------------



  FREE ENERGIE OF THE ION-ELECTRON SYSTEM (eV)
  ---------------------------------------------------
  free  energy   TOTEN  =       -72.26671610 eV

  energy  without entropy=      -72.26671610  energy(sigma->0) =      -72.26671610
 


--------------------------------------------------------------------------------------------------------


    POTLOK:  cpu time   11.0792: real time   11.1073


--------------------------------------------------------------------------------------------------------


 stress matrix after NEB project (eV)
     -1.17720      0.01549      0.03134
      0.01549     -1.13888     -0.04439
      0.03134     -0.04439     -1.15641
  FORCES: max atom, RMS     0.087416    0.041121
  FORCE total and by dimension    0.153859    0.059215
  Stress total and by dimension    2.006620    1.177201
 writing wavefunctions
     LOOP+:  cpu time  207.8178: real time  208.7789
    4ORBIT:  cpu time    0.0000: real time    0.0000

 total amount of memory used by VASP MPI-rank0   137028. kBytes
=======================================================================

   base      :      30000. kBytes
   nonlr-proj:       2171. kBytes
   fftplans  :      62912. kBytes
   grid      :      34429. kBytes
   one-center:         21. kBytes
   wavefun   :       7495. kBytes
 
  
  
 General timing and accounting informations for this job:
 ========================================================
  
                  Total CPU time used (sec):      212.367
                            User time (sec):      208.714
                          System time (sec):        3.653
                         Elapsed time (sec):      214.220
  
                   Maximum memory used (kb):      487284.
                   Average memory used (kb):           0.
  
                          Minor page faults:       133376
                          Major page faults:            0
                 Voluntary context switches:         2580
