  14  14   0   0
  0.1527893E+03  0.8315576E-09  0.1108743E-08  0.2678964E-08  0.5000000E-15
  1.000000000000000E-004
  CAR 
 unknown system                          
      2.20194411    -20.70811060  301     -6.95730484      1.00000000
    -20.708  0.0000E+00  0.0000E+00
    -20.632  0.0000E+00  0.0000E+00
    -20.555  0.0000E+00  0.0000E+00
    -20.479  0.0000E+00  0.0000E+00
    -20.403  0.0000E+00  0.0000E+00
    -20.326  0.0000E+00  0.0000E+00
    -20.250  0.0000E+00  0.0000E+00
    -20.174  0.0000E+00  0.0000E+00
    -20.097  0.0000E+00  0.0000E+00
    -20.021  0.0000E+00  0.0000E+00
    -19.944  0.5234E-13  0.3997E-14
    -19.868  0.1611E-06  0.1230E-07
    -19.792  0.5329E-02  0.4069E-03
    -19.715  0.2207E+01  0.1690E+00
    -19.639  0.1831E+02  0.1567E+01
    -19.563  0.5625E+01  0.1997E+01
    -19.486  0.4237E-01  0.2000E+01
    -19.410  0.4346E-05  0.2000E+01
    -19.334  0.4908E-11  0.2000E+01
    -19.257  0.0000E+00  0.2000E+01
    -19.181  0.0000E+00  0.2000E+01
    -19.104  0.0000E+00  0.2000E+01
    -19.028  0.0000E+00  0.2000E+01
    -18.952  0.0000E+00  0.2000E+01
    -18.875  0.0000E+00  0.2000E+01
    -18.799  0.0000E+00  0.2000E+01
    -18.723  0.0000E+00  0.2000E+01
    -18.646  0.0000E+00  0.2000E+01
    -18.570  0.0000E+00  0.2000E+01
    -18.493  0.0000E+00  0.2000E+01
    -18.417  0.0000E+00  0.2000E+01
    -18.341  0.0000E+00  0.2000E+01
    -18.264  0.0000E+00  0.2000E+01
    -18.188  0.5344E-11  0.2000E+01
    -18.112  0.4618E-05  0.2000E+01
    -18.035  0.4397E-01  0.2003E+01
    -17.959  0.5712E+01  0.2440E+01
    -17.883  0.1827E+02  0.3835E+01
    -17.806  0.2161E+01  0.4000E+01
    -17.730  0.5101E-02  0.4000E+01
    -17.653  0.1505E-06  0.4000E+01
    -17.577  0.4652E-13  0.4000E+01
    -17.501  0.0000E+00  0.4000E+01
    -17.424  0.0000E+00  0.4000E+01
    -17.348  0.0000E+00  0.4000E+01
    -17.272  0.0000E+00  0.4000E+01
    -17.195  0.0000E+00  0.4000E+01
    -17.119  0.0000E+00  0.4000E+01
    -17.043  0.0000E+00  0.4000E+01
    -16.966  0.0000E+00  0.4000E+01
    -16.890  0.0000E+00  0.4000E+01
    -16.813  0.0000E+00  0.4000E+01
    -16.737  0.0000E+00  0.4000E+01
    -16.661  0.0000E+00  0.4000E+01
    -16.584  0.0000E+00  0.4000E+01
    -16.508  0.0000E+00  0.4000E+01
    -16.432  0.0000E+00  0.4000E+01
    -16.355  0.0000E+00  0.4000E+01
    -16.279  0.7381E-10  0.4000E+01
    -16.202  0.2961E-04  0.4000E+01
    -16.126  0.1337E+00  0.4010E+01
    -16.050  0.8808E+01  0.4683E+01
    -15.973  0.1620E+02  0.5920E+01
    -15.897  0.1045E+01  0.6000E+01
    -15.821  0.1202E-02  0.6000E+01
    -15.744  0.1661E-07  0.6000E+01
    -15.668  0.2908E-14  0.6000E+01
    -15.592  0.0000E+00  0.6000E+01
    -15.515  0.0000E+00  0.6000E+01
    -15.439  0.0000E+00  0.6000E+01
    -15.362  0.0000E+00  0.6000E+01
    -15.286  0.0000E+00  0.6000E+01
    -15.210  0.0000E+00  0.6000E+01
    -15.133  0.0000E+00  0.6000E+01
    -15.057  0.0000E+00  0.6000E+01
    -14.981  0.0000E+00  0.6000E+01
    -14.904  0.0000E+00  0.6000E+01
    -14.828  0.0000E+00  0.6000E+01
    -14.751  0.0000E+00  0.6000E+01
    -14.675  0.0000E+00  0.6000E+01
    -14.599  0.0000E+00  0.6000E+01
    -14.522  0.0000E+00  0.6000E+01
    -14.446  0.0000E+00  0.6000E+01
    -14.370  0.0000E+00  0.6000E+01
    -14.293  0.8607E-11  0.6000E+01
    -14.217  0.6488E-05  0.6000E+01
    -14.141  0.5407E-01  0.6004E+01
    -14.064  0.6217E+01  0.6479E+01
    -13.988  0.1800E+02  0.7853E+01
    -13.911  0.1915E+01  0.8000E+01
    -13.835  0.3981E-02  0.8000E+01
    -13.759  0.1027E-06  0.8000E+01
    -13.682  0.2908E-13  0.8000E+01
    -13.606  0.0000E+00  0.8000E+01
    -13.530  0.0000E+00  0.8000E+01
    -13.453  0.0000E+00  0.8000E+01
    -13.377  0.0000E+00  0.8000E+01
    -13.301  0.0000E+00  0.8000E+01
    -13.224  0.0000E+00  0.8000E+01
    -13.148  0.0000E+00  0.8000E+01
    -13.071  0.0000E+00  0.8000E+01
    -12.995  0.0000E+00  0.8000E+01
    -12.919  0.0000E+00  0.8000E+01
    -12.842  0.0000E+00  0.8000E+01
    -12.766  0.0000E+00  0.8000E+01
    -12.690  0.0000E+00  0.8000E+01
    -12.613  0.0000E+00  0.8000E+01
    -12.537  0.0000E+00  0.8000E+01
    -12.460  0.0000E+00  0.8000E+01
    -12.384  0.0000E+00  0.8000E+01
    -12.308  0.0000E+00  0.8000E+01
    -12.231  0.0000E+00  0.8000E+01
    -12.155  0.0000E+00  0.8000E+01
    -12.079  0.0000E+00  0.8000E+01
    -12.002  0.0000E+00  0.8000E+01
    -11.926  0.0000E+00  0.8000E+01
    -11.850  0.0000E+00  0.8000E+01
    -11.773  0.0000E+00  0.8000E+01
    -11.697  0.0000E+00  0.8000E+01
    -11.620  0.0000E+00  0.8000E+01
    -11.544  0.0000E+00  0.8000E+01
    -11.468  0.4087E-10  0.8000E+01
    -11.391  0.1953E-04  0.8000E+01
    -11.315  0.1045E+00  0.8008E+01
    -11.239  0.8041E+01  0.8622E+01
    -11.162  0.1679E+02  0.9904E+01
    -11.086  0.1250E+01  0.1000E+02
    -11.010  0.1720E-02  0.1000E+02
    -10.933  0.1008E+00  0.1001E+02
    -10.857  0.7934E+01  0.1061E+02
    -10.780  0.1687E+02  0.1190E+02
    -10.704  0.1280E+01  0.1200E+02
    -10.628  0.1783E-02  0.1200E+02
    -10.551  0.3012E-07  0.1200E+02
    -10.475  0.3064E-10  0.1200E+02
    -10.399  0.1594E-04  0.1200E+02
    -10.322  0.9273E-01  0.1201E+02
    -10.246  0.7685E+01  0.1259E+02
    -10.169  0.1705E+02  0.1390E+02
    -10.093  0.1357E+01  0.1400E+02
    -10.017  0.2000E-02  0.1400E+02
     -9.940  0.3589E-07  0.1400E+02
     -9.864  0.5815E-14  0.1400E+02
     -9.788  0.1493E-09  0.1400E+02
     -9.711  0.4842E-04  0.1400E+02
     -9.635  0.1780E+00  0.1401E+02
     -9.559  0.9751E+01  0.1476E+02
     -9.482  0.1542E+02  0.1594E+02
     -9.406  0.1071E+01  0.1602E+02
     -9.329  0.1069E+02  0.1683E+02
     -9.253  0.1459E+02  0.1795E+02
     -9.177  0.6693E+00  0.1800E+02
     -9.100  0.5418E-03  0.1800E+02
     -9.024  0.1132E+00  0.1801E+02
     -8.948  0.8284E+01  0.1864E+02
     -8.871  0.1661E+02  0.1991E+02
     -8.795  0.1181E+01  0.2000E+02
     -8.719  0.1524E-02  0.2000E+02
     -8.642  0.2380E-07  0.2000E+02
     -8.566  0.4361E-14  0.2000E+02
     -8.489  0.0000E+00  0.2000E+02
     -8.413  0.0000E+00  0.2000E+02
     -8.337  0.0000E+00  0.2000E+02
     -8.260  0.6880E-09  0.2000E+02
     -8.184  0.1386E-03  0.2000E+02
     -8.108  0.3230E+00  0.2002E+02
     -8.031  0.1186E+02  0.2093E+02
     -7.955  0.1351E+02  0.2196E+02
     -7.878  0.5147E+00  0.2200E+02
     -7.802  0.3289E+01  0.2225E+02
     -7.726  0.1883E+02  0.2369E+02
     -7.649  0.4044E+01  0.2400E+02
     -7.573  0.1965E-01  0.2400E+02
     -7.497  0.1255E-05  0.2400E+02
     -7.420  0.1019E-06  0.2400E+02
     -7.344  0.3960E-02  0.2400E+02
     -7.268  0.1909E+01  0.2415E+02
     -7.191  0.1799E+02  0.2552E+02
     -7.115  0.6230E+01  0.2600E+02
     -7.038  0.5438E-01  0.2600E+02
     -6.962  0.6554E-05  0.2600E+02
     -6.886  0.8738E-11  0.2600E+02
     -6.809  0.0000E+00  0.2600E+02
     -6.733  0.0000E+00  0.2600E+02
     -6.657  0.0000E+00  0.2600E+02
     -6.580  0.0000E+00  0.2600E+02
     -6.504  0.0000E+00  0.2600E+02
     -6.428  0.0000E+00  0.2600E+02
     -6.351  0.0000E+00  0.2600E+02
     -6.275  0.0000E+00  0.2600E+02
     -6.198  0.0000E+00  0.2600E+02
     -6.122  0.0000E+00  0.2600E+02
     -6.046  0.0000E+00  0.2600E+02
     -5.969  0.0000E+00  0.2600E+02
     -5.893  0.0000E+00  0.2600E+02
     -5.817  0.0000E+00  0.2600E+02
     -5.740  0.0000E+00  0.2600E+02
     -5.664  0.0000E+00  0.2600E+02
     -5.587  0.0000E+00  0.2600E+02
     -5.511  0.0000E+00  0.2600E+02
     -5.435  0.0000E+00  0.2600E+02
     -5.358  0.0000E+00  0.2600E+02
     -5.282  0.0000E+00  0.2600E+02
     -5.206  0.0000E+00  0.2600E+02
     -5.129  0.0000E+00  0.2600E+02
     -5.053  0.0000E+00  0.2600E+02
     -4.977  0.0000E+00  0.2600E+02
     -4.900  0.0000E+00  0.2600E+02
     -4.824  0.0000E+00  0.2600E+02
     -4.747  0.0000E+00  0.2600E+02
     -4.671  0.0000E+00  0.2600E+02
     -4.595  0.0000E+00  0.2600E+02
     -4.518  0.0000E+00  0.2600E+02
     -4.442  0.0000E+00  0.2600E+02
     -4.366  0.0000E+00  0.2600E+02
     -4.289  0.0000E+00  0.2600E+02
     -4.213  0.0000E+00  0.2600E+02
     -4.137  0.0000E+00  0.2600E+02
     -4.060  0.0000E+00  0.2600E+02
     -3.984  0.0000E+00  0.2600E+02
     -3.907  0.0000E+00  0.2600E+02
     -3.831  0.0000E+00  0.2600E+02
     -3.755  0.0000E+00  0.2600E+02
     -3.678  0.0000E+00  0.2600E+02
     -3.602  0.0000E+00  0.2600E+02
     -3.526  0.0000E+00  0.2600E+02
     -3.449  0.0000E+00  0.2600E+02
     -3.373  0.0000E+00  0.2600E+02
     -3.296  0.0000E+00  0.2600E+02
     -3.220  0.0000E+00  0.2600E+02
     -3.144  0.0000E+00  0.2600E+02
     -3.067  0.0000E+00  0.2600E+02
     -2.991  0.0000E+00  0.2600E+02
     -2.915  0.0000E+00  0.2600E+02
     -2.838  0.0000E+00  0.2600E+02
     -2.762  0.0000E+00  0.2600E+02
     -2.686  0.0000E+00  0.2600E+02
     -2.609  0.0000E+00  0.2600E+02
     -2.533  0.0000E+00  0.2600E+02
     -2.456  0.0000E+00  0.2600E+02
     -2.380  0.0000E+00  0.2600E+02
     -2.304  0.0000E+00  0.2600E+02
     -2.227  0.0000E+00  0.2600E+02
     -2.151  0.0000E+00  0.2600E+02
     -2.075  0.0000E+00  0.2600E+02
     -1.998  0.0000E+00  0.2600E+02
     -1.922  0.0000E+00  0.2600E+02
     -1.845  0.0000E+00  0.2600E+02
     -1.769  0.0000E+00  0.2600E+02
     -1.693  0.0000E+00  0.2600E+02
     -1.616  0.0000E+00  0.2600E+02
     -1.540  0.0000E+00  0.2600E+02
     -1.464  0.0000E+00  0.2600E+02
     -1.387  0.0000E+00  0.2600E+02
     -1.311  0.1152E-10  0.2600E+02
     -1.235  0.4324E-05  0.2600E+02
     -1.158  0.1831E-01  0.2600E+02
     -1.082  0.1171E+01  0.2609E+02
     -1.005  0.3560E+01  0.2636E+02
     -0.929  0.4013E+01  0.2667E+02
     -0.853  0.1955E+01  0.2682E+02
     -0.776  0.6061E+01  0.2728E+02
     -0.700  0.3101E+01  0.2752E+02
     -0.624  0.4527E+01  0.2786E+02
     -0.547  0.4750E+01  0.2823E+02
     -0.471  0.1547E+01  0.2834E+02
     -0.395  0.4688E+01  0.2870E+02
     -0.318  0.8934E+01  0.2939E+02
     -0.242  0.9467E+01  0.3011E+02
     -0.165  0.1245E+02  0.3106E+02
     -0.089  0.8110E+01  0.3168E+02
     -0.013  0.3733E+01  0.3196E+02
      0.064  0.9241E+01  0.3267E+02
      0.140  0.6092E+01  0.3313E+02
      0.216  0.8038E+01  0.3375E+02
      0.293  0.1109E+02  0.3459E+02
      0.369  0.1945E+02  0.3608E+02
      0.446  0.1781E+02  0.3744E+02
      0.522  0.1180E+02  0.3834E+02
      0.598  0.1473E+02  0.3947E+02
      0.675  0.8229E+01  0.4010E+02
      0.751  0.8060E+01  0.4071E+02
      0.827  0.1817E+02  0.4210E+02
      0.904  0.2049E+02  0.4366E+02
      0.980  0.2170E+02  0.4532E+02
      1.056  0.1560E+02  0.4651E+02
      1.133  0.1356E+02  0.4755E+02
      1.209  0.5583E+01  0.4797E+02
      1.286  0.3584E+00  0.4800E+02
      1.362  0.7220E-03  0.4800E+02
      1.438  0.2069E-07  0.4800E+02
      1.515  0.6542E-14  0.4800E+02
      1.591  0.0000E+00  0.4800E+02
      1.667  0.0000E+00  0.4800E+02
      1.744  0.0000E+00  0.4800E+02
      1.820  0.0000E+00  0.4800E+02
      1.896  0.0000E+00  0.4800E+02
      1.973  0.0000E+00  0.4800E+02
      2.049  0.0000E+00  0.4800E+02
      2.126  0.0000E+00  0.4800E+02
      2.202  0.0000E+00  0.4800E+02
