       N       E                     dE             d eps       ncg     rms          rms(c)
DAV:   1    -0.860357944925E+02   -0.86036E+02   -0.39004E+01   568   0.252E+01    0.137E+01
DAV:   2    -0.794826659190E+02    0.65531E+01   -0.10013E+01   512   0.122E+01    0.693E+00
DAV:   3    -0.774626295972E+02    0.20200E+01   -0.56494E+00   480   0.934E+00    0.266E+00
DAV:   4    -0.772030141483E+02    0.25962E+00   -0.64435E-01   504   0.370E+00    0.751E-01
DAV:   5    -0.771537232376E+02    0.49291E-01   -0.21282E-01   512   0.183E+00    0.313E-01
DAV:   6    -0.771456116126E+02    0.81116E-02   -0.24093E-02   504   0.872E-01    0.211E-01
DAV:   7    -0.771294747731E+02    0.16137E-01   -0.69370E-03   432   0.446E-01    0.126E-01
DAV:   8    -0.771202578170E+02    0.92170E-02   -0.15020E-02   456   0.543E-01    0.100E-01
DAV:   9    -0.771193818813E+02    0.87594E-03   -0.75076E-04   448   0.167E-01
   1 F= -.77119382E+02 E0= -.77119382E+02  d E =-.648767E-13
