 vasp.5.4.4.18Apr17-6-g9f103f2a35 (build Dec 31 2018 11:41:54) complex          
  
 executed on             LinuxIFC date 2022.10.13  20:01:38
 running on   16 total cores
 distrk:  each k-point on   16 cores,    1 groups
 distr:  one band on NCORES_PER_BAND=   2 cores,    8 groups


--------------------------------------------------------------------------------------------------------


 INCAR:
 POTCAR:   PAW_PBE C 08Apr2002                    
 POTCAR:   PAW_PBE H 15Jun2001                    

 ----------------------------------------------------------------------------- 
|                                                                             |
|  ADVICE TO THIS USER RUNNING 'VASP/VAMP'   (HEAR YOUR MASTER'S VOICE ...):  |
|                                                                             |
|      You have switched on vdW-DFT.                                          |
|      This routine was written and supplied by Jiri Klimes.                  |
|      We recommed that you carefully read and cite the following             |
|      publication                                                            |
|      J. Klimes, D.R. Bowler, A. Michelides                                  |
|        J. Phys.: Cond Matt. 22 022201 (2010)                                |
|      J. Klimes, D.R. Bowler, A. Michelides                                  |
|        Phys. Rev. B. 83, 195131 (2011)                                      |
|      and references therein.                                                |
|                                                                             |
 ----------------------------------------------------------------------------- 

 POTCAR:   PAW_PBE C 08Apr2002                    
   VRHFIN =C: s2p2                                                              
   LEXCH  = PE                                                                  
   EATOM  =   147.1560 eV,   10.8157 Ry                                         
                                                                                
   TITEL  = PAW_PBE C 08Apr2002                                                 
   LULTRA =        F    use ultrasoft PP ?                                      
   IUNSCR =        0    unscreen: 0-lin 1-nonlin 2-no                           
   RPACOR =     .000    partial core radius                                     
   POMASS =   12.011; ZVAL   =    4.000    mass and valenz                      
   RCORE  =    1.500    outmost cutoff radius                                   
   RWIGS  =    1.630; RWIGS  =     .863    wigner-seitz radius (au A)           
   ENMAX  =  400.000; ENMIN  =  300.000 eV                                      
   ICORE  =        2    local potential                                         
   LCOR   =        T    correct aug charges                                     
   LPAW   =        T    paw PP                                                  
   EAUG   =  644.873                                                            
   DEXC   =     .000                                                            
   RMAX   =    2.266    core radius for proj-oper                               
   RAUG   =    1.300    factor for augmentation sphere                          
   RDEP   =    1.501    radius for radial grids                                 
   RDEPT  =    1.300    core radius for aug-charge                              
   QCUT   =   -5.516; QGAM   =   11.032    optimization parameters              
                                                                                
   Description                                                                  
     l     E      TYP  RCUT    TYP  RCUT                                        
     0   .000     23  1.200                                                     
     0   .000     23  1.200                                                     
     1   .000     23  1.500                                                     
     1  2.500     23  1.500                                                     
     2   .000      7  1.500                                                     
  local pseudopotential read in
  atomic valenz-charges read in
  non local Contribution for L=           0  read in
    real space projection operators read in
  non local Contribution for L=           0  read in
    real space projection operators read in
  non local Contribution for L=           1  read in
    real space projection operators read in
  non local Contribution for L=           1  read in
    real space projection operators read in
    PAW grid and wavefunctions read in
 
   number of l-projection  operators is LMAX  =           4
   number of lm-projection operators is LMMAX =           8
 
 POTCAR:   PAW_PBE H 15Jun2001                    
   VRHFIN =H: ultrasoft test                                                    
   LEXCH  = PE                                                                  
   EATOM  =    12.4884 eV,     .9179 Ry                                         
                                                                                
   TITEL  = PAW_PBE H 15Jun2001                                                 
   LULTRA =        F    use ultrasoft PP ?                                      
   IUNSCR =        0    unscreen: 0-lin 1-nonlin 2-no                           
   RPACOR =     .000    partial core radius                                     
   POMASS =    1.000; ZVAL   =    1.000    mass and valenz                      
   RCORE  =    1.100    outmost cutoff radius                                   
   RWIGS  =     .700; RWIGS  =     .370    wigner-seitz radius (au A)           
   ENMAX  =  250.000; ENMIN  =  200.000 eV                                      
   RCLOC  =     .701    cutoff for local pot                                    
   LCOR   =        T    correct aug charges                                     
   LPAW   =        T    paw PP                                                  
   EAUG   =  400.000                                                            
   RMAX   =    2.174    core radius for proj-oper                               
   RAUG   =    1.200    factor for augmentation sphere                          
   RDEP   =    1.112    radius for radial grids                                 
   QCUT   =   -5.749; QGAM   =   11.498    optimization parameters              
                                                                                
   Description                                                                  
     l     E      TYP  RCUT    TYP  RCUT                                        
     0   .000     23  1.100                                                     
     0   .500     23  1.100                                                     
     1  -.300     23  1.100                                                     
  local pseudopotential read in
  atomic valenz-charges read in
  non local Contribution for L=           0  read in
    real space projection operators read in
  non local Contribution for L=           0  read in
    real space projection operators read in
  non local Contribution for L=           1  read in
    real space projection operators read in
    PAW grid and wavefunctions read in
 
   number of l-projection  operators is LMAX  =           3
   number of lm-projection operators is LMMAX =           5
 
 Optimization of the real space projectors (new method)

 maximal supplied QI-value         = 25.13
 optimisation between [QCUT,QGAM] = [ 10.05, 20.36] = [ 28.30,116.06] Ry 
 Optimized for a Real-space Cutoff    1.38 Angstroem

   l    n(q)    QCUT    max X(q) W(low)/X(q) W(high)/X(q)  e(spline) 
   0      8    10.053     5.582    0.33E-04    0.15E-04    0.75E-07
   0      8    10.053    69.432    0.23E-03    0.38E-03    0.25E-06
   1      8    10.053     2.780    0.76E-04    0.11E-03    0.15E-06
   1      8    10.053     4.549    0.19E-03    0.19E-03    0.27E-06
 Optimization of the real space projectors (new method)

 maximal supplied QI-value         = 34.20
 optimisation between [QCUT,QGAM] = [  9.92, 20.18] = [ 27.55,114.04] Ry 
 Optimized for a Real-space Cutoff    1.34 Angstroem

   l    n(q)    QCUT    max X(q) W(low)/X(q) W(high)/X(q)  e(spline) 
   0      8     9.919     4.436    0.31E-04    0.59E-04    0.66E-07
   0      8     9.919    16.131    0.16E-03    0.20E-03    0.35E-06
   1      8     9.919     4.654    0.19E-03    0.46E-03    0.40E-06

 ----------------------------------------------------------------------------- 
|                                                                             |
|  ADVICE TO THIS USER RUNNING 'VASP/VAMP'   (HEAR YOUR MASTER'S VOICE ...):  |
|                                                                             |
|      You enforced a specific xc-type in the INCAR file,                     |
|      a different type was found on the POTCAR file                          |
|          I HOPE YOU KNOW, WHAT YOU ARE  DOING                               |
|                                                                             |
 ----------------------------------------------------------------------------- 

 PAW_PBE C 08Apr2002                    :
 energy of atom  1       EATOM= -147.1560
 kinetic energy error for atom=    0.0288 (will be added to EATOM!!)
 PAW_PBE H 15Jun2001                    :
 energy of atom  2       EATOM=  -12.4884
 kinetic energy error for atom=    0.0098 (will be added to EATOM!!)
 
 
 POSCAR:  C  H                                   
  positions in cartesian coordinates
  No initial velocities read in
 exchange correlation table for  LEXCH =       17
   RHO(1)=    0.500       N(1)  =     2000
   RHO(2)=  100.500       N(2)  =     4000

 VTST: version 3.2, (02/03/18)

 CHAIN: initializing optimizer
 
 OPT: Using VASP Dynamics algorithm
 CHAIN: Read ICHAIN            0
 
 POSCAR:  C  H                                   
  positions in cartesian coordinates
  No initial velocities read in
 


--------------------------------------------------------------------------------------------------------


 ion  position               nearest neighbor table
   1  0.520  0.390  0.382-   6 1.09   7 1.09   3 1.55   4 1.55
   2  0.312  0.653  0.354-   8 1.09  12 1.09  10 1.09   3 1.54
   3  0.326  0.514  0.370-   9 1.09   5 1.11   2 1.54   1 1.55
   4  0.613  0.386  0.433-  11 1.09  14 1.09  13 1.10   1 1.55
   5  0.310  0.472  0.334-   3 1.11
   6  0.612  0.383  0.352-   1 1.09
   7  0.501  0.300  0.380-   1 1.09
   8  0.263  0.680  0.315-   2 1.09
   9  0.206  0.515  0.387-   3 1.09
  10  0.447  0.647  0.356-   2 1.09
  11  0.656  0.291  0.454-   4 1.09
  12  0.217  0.739  0.378-   2 1.09
  13  0.735  0.399  0.428-   4 1.10
  14  0.519  0.472  0.457-   4 1.09
 
  LATTYP: Found a simple monoclinic cell.
 ALAT       =    11.0874343290
 B/A-ratio  =     2.4162162653
 C/A-ratio  =     1.5206906326
 COS(beta)  =    -0.9041944302
  
  Lattice vectors:
  
 A1 = (  -5.5437171645,  -9.6019997917,   0.0000000000)
 A2 = (   0.0000000000,   0.0000000000, -26.7896391657)
 A3 = (  13.8592929113,   9.6019997917,   0.0000000000)


Analysis of symmetry for initial positions (statically):
=====================================================================
 Subroutine PRICEL returns:
 Original cell was already a primitive cell.
 

 Routine SETGRP: Setting up the symmetry group for a 
 simple monoclinic supercell.


 Subroutine GETGRP returns: Found  1 space group operations
 (whereof  1 operations were pure point group operations)
 out of a pool of  4 trial point group operations.


The static configuration has the point symmetry C_1 .


Analysis of symmetry for dynamics (positions and initial velocities):
=====================================================================
 Subroutine PRICEL returns:
 Original cell was already a primitive cell.
 

 Routine SETGRP: Setting up the symmetry group for a 
 simple monoclinic supercell.


 Subroutine GETGRP returns: Found  1 space group operations
 (whereof  1 operations were pure point group operations)
 out of a pool of  4 trial point group operations.


The dynamic configuration has the point symmetry C_1 .


 Subroutine INISYM returns: Found  1 space group operations
 (whereof  1 operations are pure point group operations),
 and found     1 'primitive' translations

 
 
 KPOINTS: KPOINTS created by Atomic Simulation Env

Automatic generation of k-mesh.
Space group operators:
 irot       det(A)        alpha          n_x          n_y          n_z        tau_x        tau_y        tau_z
    1     1.000000     0.000000     1.000000     0.000000     0.000000     0.000000     0.000000     0.000000
 
 Subroutine IBZKPT returns following result:
 ===========================================
 
 Found      8 irreducible k-points:
 
 Following reciprocal coordinates:
            Coordinates               Weight
  0.125000  0.125000  0.000000      2.000000
  0.375000  0.125000  0.000000      2.000000
 -0.375000  0.125000  0.000000      2.000000
 -0.125000  0.125000  0.000000      2.000000
  0.125000  0.375000  0.000000      2.000000
  0.375000  0.375000  0.000000      2.000000
 -0.375000  0.375000  0.000000      2.000000
 -0.125000  0.375000  0.000000      2.000000
 
 Following cartesian coordinates:
            Coordinates               Weight
  0.015032  0.004339  0.000000      2.000000
  0.045096 -0.013018  0.000000      2.000000
 -0.045096  0.039054  0.000000      2.000000
 -0.015032  0.021697  0.000000      2.000000
  0.015032  0.030376  0.000000      2.000000
  0.045096  0.013018  0.000000      2.000000
 -0.045096  0.065091  0.000000      2.000000
 -0.015032  0.047733  0.000000      2.000000
 


--------------------------------------------------------------------------------------------------------




 Dimension of arrays:
   k-points           NKPTS =      8   k-points in BZ     NKDIM =      8   number of bands    NBANDS=     24
   number of dos      NEDOS =    301   number of ions     NIONS =     14
   non local maximal  LDIM  =      4   non local SUM 2l+1 LMDIM =      8
   total plane-waves  NPLWV = 699840
   max r-space proj   IRMAX =   3655   max aug-charges    IRDMAX=  31083
   dimension x,y,z NGX =    54 NGY =   72 NGZ =  180
   dimension x,y,z NGXF=   108 NGYF=  144 NGZF=  360
   support grid    NGXF=   216 NGYF=  288 NGZF=  720
   ions per type =               4  10
   NGX,Y,Z   is equivalent  to a cutoff of  10.80, 10.80, 11.17 a.u.
   NGXF,Y,Z  is equivalent  to a cutoff of  21.59, 21.59, 22.34 a.u.

 SYSTEM =  unknown system                          
 POSCAR =   C  H                                   

 Startparameter for this run:
   NWRITE =      2    write-flag & timer
   PREC   = acc       normal or accurate (medium, high low for compatibility)
   ISTART =      1    job   : 0-new  1-cont  2-samecut
   ICHARG =      2    charge: 1-file 2-atom 10-const
   ISPIN  =      1    spin polarized calculation?
   LNONCOLLINEAR =      F non collinear calculations
   LSORBIT =      F    spin-orbit coupling
   INIWAV =      1    electr: 0-lowe 1-rand  2-diag
   LASPH  =      F    aspherical Exc in radial PAW
   METAGGA=      F    non-selfconsistent MetaGGA calc.

 Electronic Relaxation 1
   ENCUT  =  400.0 eV  29.40 Ry    5.42 a.u.  13.56 18.08 43.69*2*pi/ulx,y,z
   ENINI  =  400.0     initial cutoff
   ENAUG  =  644.9 eV  augmentation charge cutoff
   NELM   =    100;   NELMIN=  2; NELMDL=  0     # of ELM steps 
   EDIFF  = 0.1E-02   stopping-criterion for ELM
   LREAL  =      T    real-space projection
   NLSPLINE    = F    spline interpolate recip. space projectors
   LCOMPAT=      F    compatible to vasp.4.4
   GGA_COMPAT  = T    GGA compatible to vasp.4.4-vasp.4.6
   LMAXPAW     = -100 max onsite density
   LMAXMIX     =    2 max onsite mixed and CHGCAR
   VOSKOWN=      0    Vosko Wilk Nusair interpolation
   ROPT   =   -0.00025  -0.00025
 Ionic relaxation
   EDIFFG = 0.1E-01   stopping-criterion for IOM
   NSW    =      0    number of steps for IOM
   NBLOCK =      1;   KBLOCK =      1    inner block; outer block 
   IBRION =     -1    ionic relax: 0-MD 1-quasi-New 2-CG
   NFREE  =      0    steps in history (QN), initial steepest desc. (CG)
   ISIF   =      2    stress and relaxation
   IWAVPR =     10    prediction:  0-non 1-charg 2-wave 3-comb
   ISYM   =      2    0-nonsym 1-usesym 2-fastsym
   LCORR  =      T    Harris-Foulkes like correction to forces

   POTIM  = 0.5000    time-step for ionic-motion
   TEIN   =    0.0    initial temperature
   TEBEG  =    0.0;   TEEND  =   0.0 temperature during run
   SMASS  =  -3.00    Nose mass-parameter (am)
   estimated Nose-frequenzy (Omega)   =  0.10E-29 period in steps =****** mass=  -0.158E-26a.u.
   SCALEE = 1.0000    scale energy and forces
   NPACO  =    256;   APACO  = 16.0  distance and # of slots for P.C.
   PSTRESS=    0.0 pullay stress

  Mass of Ions in am
   POMASS =  12.01  1.00
  Ionic Valenz
   ZVAL   =   4.00  1.00
  Atomic Wigner-Seitz radii
   RWIGS  =  -1.00 -1.00
  virtual crystal weights 
   VCA    =   1.00  1.00
   NELECT =      26.0000    total number of electrons
   NUPDOWN=      -1.0000    fix difference up-down

 DOS related values:
   EMIN   =  10.00;   EMAX   =-10.00  energy-range for DOS
   EFERMI =   0.00
   ISMEAR =     0;   SIGMA  =   0.05  broadening in eV -4-tet -1-fermi 0-gaus

 Electronic relaxation 2 (details)
   IALGO  =     38    algorithm
   LDIAG  =      T    sub-space diagonalisation (order eigenvalues)
   LSUBROT=      F    optimize rotation matrix (better conditioning)
   TURBO    =      0    0=normal 1=particle mesh
   IRESTART =      0    0=no restart 2=restart with 2 vectors
   NREBOOT  =      0    no. of reboots
   NMIN     =      0    reboot dimension
   EREF     =   0.00    reference energy to select bands
   IMIX   =      4    mixing-type and parameters
     AMIX     =   0.40;   BMIX     =  1.00
     AMIX_MAG =   1.60;   BMIX_MAG =  1.00
     AMIN     =   0.10
     WC   =   100.;   INIMIX=   1;  MIXPRE=   1;  MAXMIX= -45

 Intra band minimization:
   WEIMIN = 0.0000     energy-eigenvalue tresh-hold
   EBREAK =  0.10E-04  absolut break condition
   DEPER  =   0.30     relativ break condition  

   TIME   =   0.40     timestep for ELM

  volume/ion in A,a.u.               =     152.79      1031.07
  Fermi-wavevector in a.u.,A,eV,Ry     =   0.376408  0.711308  1.927715  0.141683
  Thomas-Fermi vector in A             =   1.308228
 
 Write flags
   LWAVE        =      T    write WAVECAR
   LDOWNSAMPLE  =      F    k-point downsampling of WAVECAR
   LCHARG       =      F    write CHGCAR
   LVTOT        =      F    write LOCPOT, total local potential
   LVHAR        =      F    write LOCPOT, Hartree potential only
   LELF         =      F    write electronic localiz. function (ELF)
   LORBIT       =      0    0 simple, 1 ext, 2 COOP (PROOUT), +10 PAW based schemes


 Dipole corrections
   LMONO  =      F    monopole corrections only (constant potential shift)
   LDIPOL =      F    correct potential (dipole corrections)
   IDIPOL =      0    1-x, 2-y, 3-z, 4-all directions 
   EPSILON=  1.0000000 bulk dielectric constant

 Exchange correlation treatment:
   GGA     =    BF    GGA type
   LEXCH   =    17    internal setting for exchange type
   VOSKOWN=      0    Vosko Wilk Nusair interpolation
   LHFCALC =     F    Hartree Fock is set to
   LHFONE  =     F    Hartree Fock one center treatment
   AEXX    =    0.0000 exact exchange contribution

 vdW DFT:
   LUSE_VDW   =     T    switch on vdW DFT
   Zab_VDW    =******    correlation parameter
   PARAM1     =0.1234
   PARAM2     =1.0000
   PARAM3     =0.0000
   -- rVV10 --
   BPARAM     = 6.3000
   CPARAM     = 0.0093

 Linear response parameters
   LEPSILON=     F    determine dielectric tensor
   LRPA    =     F    only Hartree local field effects (RPA)
   LNABLA  =     F    use nabla operator in PAW spheres
   LVEL    =     F    velocity operator in full k-point grid
   LINTERFAST=   F  fast interpolation
   KINTER  =     0    interpolate to denser k-point grid
   CSHIFT  =0.1000    complex shift for real part using Kramers Kronig
   OMEGAMAX=  -1.0    maximum frequency
   DEG_THRESHOLD= 0.2000000E-02 threshold for treating states as degnerate
   RTIME   =   -0.100 relaxation time in fs
  (WPLASMAI=    0.000 imaginary part of plasma frequency in eV, 0.658/RTIME)
   DFIELD  = 0.0000000 0.0000000 0.0000000 field for delta impulse in time
 
 Orbital magnetization related:
   ORBITALMAG=     F  switch on orbital magnetization
   LCHIMAG   =     F  perturbation theory with respect to B field
   DQ        =  0.001000  dq finite difference perturbation B field
   LLRAUG    =     F  two centre corrections for induced B field



--------------------------------------------------------------------------------------------------------


 Static calculation
 charge density and potential will be updated during run
 non-spin polarized calculation
 Variant of blocked Davidson
 Davidson routine will perform the subspace rotation
 perform sub-space diagonalisation
    after iterative eigenvector-optimisation
 modified Broyden-mixing scheme, WC =      100.0
 initial mixing is a Kerker type mixing with AMIX =  0.4000 and BMIX =      1.0000
 Hartree-type preconditioning will be used
 using additional bands           11
 real space projection scheme for non local part
 calculate Harris-corrections to forces 
   (improved forces if not selfconsistent)
 use gradient corrections 
 use of overlap-Matrix (Vanderbilt PP)
 Gauss-broadening in eV      SIGMA  =   0.05


--------------------------------------------------------------------------------------------------------


  energy-cutoff  :      400.00
  volume of cell :     2139.05
      direct lattice vectors                 reciprocal lattice vectors
     8.315575747  0.000000000  0.000000000     0.120256255 -0.069429981  0.000000000
     5.543717165  9.601999792  0.000000000     0.000000000  0.104144972  0.000000000
     0.000000000  0.000000000 26.789639166     0.000000000  0.000000000  0.037327864

  length of vectors
     8.315575747 11.087434329 26.789639166     0.138859963  0.104144972  0.037327864


 
 old parameters found on file WAVECAR:
  energy-cutoff  :      400.00
  volume of cell :     2139.05
      direct lattice vectors                 reciprocal lattice vectors
     8.315575747  0.000000000  0.000000000     0.120256255 -0.069429981  0.000000000
     5.543717165  9.601999792  0.000000000     0.000000000  0.104144972  0.000000000
     0.000000000  0.000000000 26.789639166     0.000000000  0.000000000  0.037327864

  length of vectors

 
 k-points in units of 2pi/SCALE and weight: KPOINTS created by Atomic Simulation Env
   0.01503203  0.00433937  0.00000000       0.125
   0.04509610 -0.01301812  0.00000000       0.125
  -0.04509610  0.03905436  0.00000000       0.125
  -0.01503203  0.02169687  0.00000000       0.125
   0.01503203  0.03037562  0.00000000       0.125
   0.04509610  0.01301812  0.00000000       0.125
  -0.04509610  0.06509061  0.00000000       0.125
  -0.01503203  0.04773311  0.00000000       0.125
 
 k-points in reciprocal lattice and weights: KPOINTS created by Atomic Simulation Env
   0.12500000  0.12500000  0.00000000       0.125
   0.37500000  0.12500000  0.00000000       0.125
  -0.37500000  0.12500000  0.00000000       0.125
  -0.12500000  0.12500000  0.00000000       0.125
   0.12500000  0.37500000  0.00000000       0.125
   0.37500000  0.37500000  0.00000000       0.125
  -0.37500000  0.37500000  0.00000000       0.125
  -0.12500000  0.37500000  0.00000000       0.125
 
 position of ions in fractional coordinates (direct lattice) 
   0.52035675  0.39020101  0.38216640
   0.31179895  0.65314519  0.35370204
   0.32609565  0.51439076  0.36967239
   0.61324206  0.38629661  0.43268593
   0.30969458  0.47175589  0.33360733
   0.61169442  0.38337431  0.35174793
   0.50123358  0.29958134  0.38021789
   0.26272153  0.68007604  0.31539283
   0.20633100  0.51525517  0.38701156
   0.44699592  0.64697773  0.35610035
   0.65586120  0.29112894  0.45403374
   0.21697089  0.73929495  0.37769452
   0.73538891  0.39853365  0.42808714
   0.51907580  0.47231411  0.45682586
 
 position of ions in cartesian coordinates  (Angst):
   6.49023000  3.74671000 10.23810000
   6.21364000  6.27150000  9.47555000
   5.56331000  4.93918000  9.90339000
   7.24098000  3.70922000 11.59150000
   5.19057000  4.52980000  8.93722000
   7.21191000  3.68116000  9.42320000
   5.82884000  2.87658000 10.18590000
   5.95483000  6.53009000  8.44926000
   4.57219000  4.94748000 10.36790000
   7.30369000  6.21228000  9.53980000
   7.06780000  2.79542000 12.16340000
   5.90268000  7.09871000 10.11830000
   8.32454000  3.82672000 11.46830000
   6.93479000  4.53516000 12.23820000
 


--------------------------------------------------------------------------------------------------------


 k-point  1 :   0.1250 0.1250 0.0000  plane waves:   38866
 k-point  2 :   0.3750 0.1250 0.0000  plane waves:   38821
 k-point  3 :  -0.3750 0.1250 0.0000  plane waves:   38806
 k-point  4 :  -0.1250 0.1250 0.0000  plane waves:   38864
 k-point  5 :   0.1250 0.3750 0.0000  plane waves:   38862
 k-point  6 :   0.3750 0.3750 0.0000  plane waves:   38888
 k-point  7 :  -0.3750 0.3750 0.0000  plane waves:   38838
 k-point  8 :  -0.1250 0.3750 0.0000  plane waves:   38891

 maximum and minimum number of plane-waves per node :     19465    19374

 maximum number of plane-waves:     38891
 maximum index in each direction: 
   IXMAX=   13   IYMAX=   17   IZMAX=   43
   IXMIN=  -13   IYMIN=  -18   IZMIN=  -43


 real space projection operators:
  total allocation   :       2124.67 KBytes
  max/ min on nodes  :       1062.80       1061.88


 parallel 3D FFT for wavefunctions:
    minimum data exchange during FFTs selected (reduces bandwidth)
 parallel 3D FFT for charge:
    minimum data exchange during FFTs selected (reduces bandwidth)


 total amount of memory used by VASP MPI-rank0   137024. kBytes
=======================================================================

   base      :      30000. kBytes
   nonlr-proj:       2167. kBytes
   fftplans  :      62912. kBytes
   grid      :      34429. kBytes
   one-center:         21. kBytes
   wavefun   :       7495. kBytes
 
     INWAV:  cpu time    0.3407: real time    0.3437
 Broyden mixing: mesh for mixing (old mesh)
   NGX = 27   NGY = 37   NGZ = 87
  (NGX  =108   NGY  =144   NGZ  =360)
  gives a total of  86913 points

 initial charge density was supplied:
 charge density of overlapping atoms calculated
 number of electron      26.0000000 magnetization 
 keeping initial charge density in first step


--------------------------------------------------------------------------------------------------------


 Maximum index for non-local projection operator         1764
 Maximum index for augmentation-charges         1961 (set IRDMAX)


--------------------------------------------------------------------------------------------------------


 First call to EWALD:  gamma=   0.138
 Maximum number of real-space cells 5x 4x 2
 Maximum number of reciprocal cells 2x 2x 5

    FEWALD:  cpu time    0.0015: real time    0.0015


--------------------------------------- Iteration      1(   1)  ---------------------------------------


vdW kernel read from vdw_kernel.bindat
  0.0000  0.2424  0.5071  0.7962  1.1119  1.4567  1.8333  2.2446  2.6937  3.1842
  3.7199  4.3049  4.9438  5.6415  6.4036  7.2358  8.1446  9.1372 10.2212 11.4050
 12.6979 14.1099 15.6519 17.3360 19.1751 21.1837 23.3773 25.7729 28.3892 31.2465
 34.3669 37.7748 41.4965 45.5611 50.0000
 
    POTLOK:  cpu time   11.3507: real time   11.4395
    SETDIJ:  cpu time    0.1186: real time    0.1189
     EDDAV:  cpu time    2.6638: real time    2.6704
       DOS:  cpu time    0.0002: real time    0.0002
    CHARGE:  cpu time    0.2756: real time    0.2762
    MIXING:  cpu time    0.0080: real time    0.0080
    --------------------------------------------
      LOOP:  cpu time   14.4169: real time   14.5133

 eigenvalue-minimisations  :   568
 total energy-change (2. order) :-0.8603579E+02  (-0.3900354E+01)
 number of electron      26.0000000 magnetization 
 augmentation part        0.6971482 magnetization 

 Broyden mixing:
  rms(total) = 0.13659E+01    rms(broyden)= 0.13655E+01
  rms(prec ) = 0.14598E+01
  weight for this iteration     100.00

 Free energy of the ion-electron system (eV)
  ---------------------------------------------------
  alpha Z        PSCENC =         1.28650428
  Ewald energy   TEWEN  =      1706.30161663
  -Hartree energ DENC   =     -2144.14076885
  -exchange      EXHF   =         0.00000000
  -V(xc)+E(xc)   XCENC  =        78.86535585
  PAW double counting   =       152.91373464     -159.42092291
  entropy T*S    EENTRO =        -0.00000000
  eigenvalues    EBANDS =      -442.01714305
  atomic energy  EATOM  =       720.17582891
  Solvation  Ediel_sol  =         0.00000000
  ---------------------------------------------------
  free energy    TOTEN  =       -86.03579449 eV

  energy without entropy =      -86.03579449  energy(sigma->0) =      -86.03579449


--------------------------------------------------------------------------------------------------------




--------------------------------------- Iteration      1(   2)  ---------------------------------------


    POTLOK:  cpu time   10.8170: real time   10.8881
    SETDIJ:  cpu time    0.1149: real time    0.1151
     EDDAV:  cpu time    2.4510: real time    2.4570
       DOS:  cpu time    0.0002: real time    0.0002
    CHARGE:  cpu time    0.2748: real time    0.2755
    MIXING:  cpu time    0.0088: real time    0.0088
    --------------------------------------------
      LOOP:  cpu time   13.6667: real time   13.7447

 eigenvalue-minimisations  :   512
 total energy-change (2. order) : 0.6553129E+01  (-0.1001306E+01)
 number of electron      26.0000000 magnetization 
 augmentation part        0.6477483 magnetization 

 Broyden mixing:
  rms(total) = 0.69303E+00    rms(broyden)= 0.69297E+00
  rms(prec ) = 0.73732E+00
  weight for this iteration     100.00

 eigenvalues of (default mixing * dielectric matrix)
  average eigenvalue GAMMA=   1.6952
  1.6952

 Free energy of the ion-electron system (eV)
  ---------------------------------------------------
  alpha Z        PSCENC =         1.28650428
  Ewald energy   TEWEN  =      1706.30161663
  -Hartree energ DENC   =     -2203.23192780
  -exchange      EXHF   =         0.00000000
  -V(xc)+E(xc)   XCENC  =        81.90848753
  PAW double counting   =       235.40725438     -242.06846371
  entropy T*S    EENTRO =        -0.00000000
  eigenvalues    EBANDS =      -379.26196614
  atomic energy  EATOM  =       720.17582891
  Solvation  Ediel_sol  =         0.00000000
  ---------------------------------------------------
  free energy    TOTEN  =       -79.48266592 eV

  energy without entropy =      -79.48266592  energy(sigma->0) =      -79.48266592


--------------------------------------------------------------------------------------------------------




--------------------------------------- Iteration      1(   3)  ---------------------------------------


    POTLOK:  cpu time   10.8400: real time   10.8772
    SETDIJ:  cpu time    0.1140: real time    0.1142
     EDDAV:  cpu time    2.3739: real time    2.3882
       DOS:  cpu time    0.0002: real time    0.0002
    CHARGE:  cpu time    0.2706: real time    0.2713
    MIXING:  cpu time    0.0084: real time    0.0085
    --------------------------------------------
      LOOP:  cpu time   13.6071: real time   13.6596

 eigenvalue-minimisations  :   480
 total energy-change (2. order) : 0.2020036E+01  (-0.5649363E+00)
 number of electron      26.0000000 magnetization 
 augmentation part        0.6076099 magnetization 

 Broyden mixing:
  rms(total) = 0.26641E+00    rms(broyden)= 0.26625E+00
  rms(prec ) = 0.27931E+00
  weight for this iteration     100.00

 eigenvalues of (default mixing * dielectric matrix)
  average eigenvalue GAMMA=   1.9730
  1.9730  1.9730

 Free energy of the ion-electron system (eV)
  ---------------------------------------------------
  alpha Z        PSCENC =         1.28650428
  Ewald energy   TEWEN  =      1706.30161663
  -Hartree energ DENC   =     -2256.01252982
  -exchange      EXHF   =         0.00000000
  -V(xc)+E(xc)   XCENC  =        85.14716583
  PAW double counting   =       312.95831613     -319.66841865
  entropy T*S    EENTRO =        -0.00000000
  eigenvalues    EBANDS =      -327.65111291
  atomic energy  EATOM  =       720.17582891
  Solvation  Ediel_sol  =         0.00000000
  ---------------------------------------------------
  free energy    TOTEN  =       -77.46262960 eV

  energy without entropy =      -77.46262960  energy(sigma->0) =      -77.46262960


--------------------------------------------------------------------------------------------------------




--------------------------------------- Iteration      1(   4)  ---------------------------------------


    POTLOK:  cpu time   10.8596: real time   10.8861
    SETDIJ:  cpu time    0.1153: real time    0.1156
     EDDAV:  cpu time    2.3977: real time    2.4494
       DOS:  cpu time    0.0002: real time    0.0002
    CHARGE:  cpu time    0.2720: real time    0.2726
    MIXING:  cpu time    0.0084: real time    0.0085
    --------------------------------------------
      LOOP:  cpu time   13.6533: real time   13.7324

 eigenvalue-minimisations  :   504
 total energy-change (2. order) : 0.2596154E+00  (-0.6443455E-01)
 number of electron      26.0000000 magnetization 
 augmentation part        0.6139194 magnetization 

 Broyden mixing:
  rms(total) = 0.75069E-01    rms(broyden)= 0.75052E-01
  rms(prec ) = 0.88066E-01
  weight for this iteration     100.00

 eigenvalues of (default mixing * dielectric matrix)
  average eigenvalue GAMMA=   1.6783
  2.4140  1.3105  1.3105

 Free energy of the ion-electron system (eV)
  ---------------------------------------------------
  alpha Z        PSCENC =         1.28650428
  Ewald energy   TEWEN  =      1706.30161663
  -Hartree energ DENC   =     -2263.19303529
  -exchange      EXHF   =         0.00000000
  -V(xc)+E(xc)   XCENC  =        85.87752317
  PAW double counting   =       313.09037196     -319.74227743
  entropy T*S    EENTRO =        -0.00000000
  eigenvalues    EBANDS =      -320.99954638
  atomic energy  EATOM  =       720.17582891
  Solvation  Ediel_sol  =         0.00000000
  ---------------------------------------------------
  free energy    TOTEN  =       -77.20301415 eV

  energy without entropy =      -77.20301415  energy(sigma->0) =      -77.20301415


--------------------------------------------------------------------------------------------------------




--------------------------------------- Iteration      1(   5)  ---------------------------------------


    POTLOK:  cpu time   10.8591: real time   10.8860
    SETDIJ:  cpu time    0.1139: real time    0.1142
     EDDAV:  cpu time    2.4290: real time    2.4350
       DOS:  cpu time    0.0002: real time    0.0002
    CHARGE:  cpu time    0.2714: real time    0.2721
    MIXING:  cpu time    0.0084: real time    0.0084
    --------------------------------------------
      LOOP:  cpu time   13.6820: real time   13.7158

 eigenvalue-minimisations  :   512
 total energy-change (2. order) : 0.4929091E-01  (-0.2128172E-01)
 number of electron      26.0000000 magnetization 
 augmentation part        0.6068321 magnetization 

 Broyden mixing:
  rms(total) = 0.31317E-01    rms(broyden)= 0.31289E-01
  rms(prec ) = 0.38909E-01
  weight for this iteration     100.00

 eigenvalues of (default mixing * dielectric matrix)
  average eigenvalue GAMMA=   1.7184
  2.2580  2.2580  1.1787  1.1787

 Free energy of the ion-electron system (eV)
  ---------------------------------------------------
  alpha Z        PSCENC =         1.28650428
  Ewald energy   TEWEN  =      1706.30161663
  -Hartree energ DENC   =     -2272.66089110
  -exchange      EXHF   =         0.00000000
  -V(xc)+E(xc)   XCENC  =        86.34157422
  PAW double counting   =       323.46829556     -330.13017074
  entropy T*S    EENTRO =        -0.00000000
  eigenvalues    EBANDS =      -311.93648101
  atomic energy  EATOM  =       720.17582891
  Solvation  Ediel_sol  =         0.00000000
  ---------------------------------------------------
  free energy    TOTEN  =       -77.15372324 eV

  energy without entropy =      -77.15372324  energy(sigma->0) =      -77.15372324


--------------------------------------------------------------------------------------------------------




--------------------------------------- Iteration      1(   6)  ---------------------------------------


    POTLOK:  cpu time   10.8425: real time   10.9051
    SETDIJ:  cpu time    0.1136: real time    0.1138
     EDDAV:  cpu time    2.3977: real time    2.4035
       DOS:  cpu time    0.0002: real time    0.0002
    CHARGE:  cpu time    0.2707: real time    0.2714
    MIXING:  cpu time    0.0091: real time    0.0092
    --------------------------------------------
      LOOP:  cpu time   13.6338: real time   13.7031

 eigenvalue-minimisations  :   504
 total energy-change (2. order) : 0.8111625E-02  (-0.2409308E-02)
 number of electron      26.0000000 magnetization 
 augmentation part        0.6080679 magnetization 

 Broyden mixing:
  rms(total) = 0.21052E-01    rms(broyden)= 0.21050E-01
  rms(prec ) = 0.26821E-01
  weight for this iteration     100.00

 eigenvalues of (default mixing * dielectric matrix)
  average eigenvalue GAMMA=   1.6924
  2.5068  2.5068  1.2865  1.2865  0.8755

 Free energy of the ion-electron system (eV)
  ---------------------------------------------------
  alpha Z        PSCENC =         1.28650428
  Ewald energy   TEWEN  =      1706.30161663
  -Hartree energ DENC   =     -2274.85633920
  -exchange      EXHF   =         0.00000000
  -V(xc)+E(xc)   XCENC  =        86.26740296
  PAW double counting   =       318.13247733     -324.78703494
  entropy T*S    EENTRO =        -0.00000000
  eigenvalues    EBANDS =      -309.66606759
  atomic energy  EATOM  =       720.17582891
  Solvation  Ediel_sol  =         0.00000000
  ---------------------------------------------------
  free energy    TOTEN  =       -77.14561161 eV

  energy without entropy =      -77.14561161  energy(sigma->0) =      -77.14561161


--------------------------------------------------------------------------------------------------------




--------------------------------------- Iteration      1(   7)  ---------------------------------------


    POTLOK:  cpu time   10.8583: real time   10.9291
    SETDIJ:  cpu time    0.1157: real time    0.1160
     EDDAV:  cpu time    2.1252: real time    2.1304
       DOS:  cpu time    0.0002: real time    0.0002
    CHARGE:  cpu time    0.2718: real time    0.2725
    MIXING:  cpu time    0.0092: real time    0.0092
    --------------------------------------------
      LOOP:  cpu time   13.3804: real time   13.4573

 eigenvalue-minimisations  :   432
 total energy-change (2. order) : 0.1613684E-01  (-0.6937039E-03)
 number of electron      26.0000000 magnetization 
 augmentation part        0.6074730 magnetization 

 Broyden mixing:
  rms(total) = 0.12568E-01    rms(broyden)= 0.12568E-01
  rms(prec ) = 0.16616E-01
  weight for this iteration     100.00

 eigenvalues of (default mixing * dielectric matrix)
  average eigenvalue GAMMA=   1.8991
  3.1143  3.1143  1.6776  1.2502  1.1190  1.1190

 Free energy of the ion-electron system (eV)
  ---------------------------------------------------
  alpha Z        PSCENC =         1.28650428
  Ewald energy   TEWEN  =      1706.30161663
  -Hartree energ DENC   =     -2278.42066975
  -exchange      EXHF   =         0.00000000
  -V(xc)+E(xc)   XCENC  =        86.41629615
  PAW double counting   =       319.31741881     -325.97047858
  entropy T*S    EENTRO =        -0.00000000
  eigenvalues    EBANDS =      -306.23599123
  atomic energy  EATOM  =       720.17582891
  Solvation  Ediel_sol  =         0.00000000
  ---------------------------------------------------
  free energy    TOTEN  =       -77.12947477 eV

  energy without entropy =      -77.12947477  energy(sigma->0) =      -77.12947477


--------------------------------------------------------------------------------------------------------




--------------------------------------- Iteration      1(   8)  ---------------------------------------


    POTLOK:  cpu time   10.8384: real time   10.8760
    SETDIJ:  cpu time    0.1140: real time    0.1143
     EDDAV:  cpu time    2.2147: real time    2.2201
       DOS:  cpu time    0.0001: real time    0.0001
    CHARGE:  cpu time    0.2716: real time    0.2723
    MIXING:  cpu time    0.0088: real time    0.0088
    --------------------------------------------
      LOOP:  cpu time   13.4477: real time   13.4917

 eigenvalue-minimisations  :   456
 total energy-change (2. order) : 0.9216956E-02  (-0.1501955E-02)
 number of electron      26.0000000 magnetization 
 augmentation part        0.6059919 magnetization 

 Broyden mixing:
  rms(total) = 0.10034E-01    rms(broyden)= 0.10028E-01
  rms(prec ) = 0.11156E-01
  weight for this iteration     100.00

 eigenvalues of (default mixing * dielectric matrix)
  average eigenvalue GAMMA=   1.8224
  4.2605  2.4524  1.8105  1.2613  1.2613  0.9396  0.7713

 Free energy of the ion-electron system (eV)
  ---------------------------------------------------
  alpha Z        PSCENC =         1.28650428
  Ewald energy   TEWEN  =      1706.30161663
  -Hartree energ DENC   =     -2282.63177325
  -exchange      EXHF   =         0.00000000
  -V(xc)+E(xc)   XCENC  =        86.50912884
  PAW double counting   =       319.74248909     -326.39945696
  entropy T*S    EENTRO =        -0.00000000
  eigenvalues    EBANDS =      -302.10459536
  atomic energy  EATOM  =       720.17582891
  Solvation  Ediel_sol  =         0.00000000
  ---------------------------------------------------
  free energy    TOTEN  =       -77.12025782 eV

  energy without entropy =      -77.12025782  energy(sigma->0) =      -77.12025782


--------------------------------------------------------------------------------------------------------




--------------------------------------- Iteration      1(   9)  ---------------------------------------


    POTLOK:  cpu time   10.8850: real time   10.9637
    SETDIJ:  cpu time    0.1137: real time    0.1139
     EDDAV:  cpu time    2.1879: real time    2.1932
       DOS:  cpu time    0.0002: real time    0.0002
    --------------------------------------------
      LOOP:  cpu time   13.1867: real time   13.2710

 eigenvalue-minimisations  :   448
 total energy-change (2. order) : 0.8759357E-03  (-0.7507567E-04)
 number of electron      26.0000000 magnetization 
 augmentation part        0.6059919 magnetization 

 Free energy of the ion-electron system (eV)
  ---------------------------------------------------
  alpha Z        PSCENC =         1.28650428
  Ewald energy   TEWEN  =      1706.30161663
  -Hartree energ DENC   =     -2283.23166077
  -exchange      EXHF   =         0.00000000
  -V(xc)+E(xc)   XCENC  =        86.53761281
  PAW double counting   =       319.98267523     -326.63873440
  entropy T*S    EENTRO =        -0.00000000
  eigenvalues    EBANDS =      -301.53322459
  atomic energy  EATOM  =       720.17582891
  Solvation  Ediel_sol  =         0.00000000
  ---------------------------------------------------
  free energy    TOTEN  =       -77.11938188 eV

  energy without entropy =      -77.11938188  energy(sigma->0) =      -77.11938188


--------------------------------------------------------------------------------------------------------




 average (electrostatic) potential at core
  the test charge radii are     0.6991  0.5201
  (the norm of the test charge is              1.0000)
       1 -58.6183       2 -58.5038       3 -58.5760       4 -58.3763       5 -42.2959
       6 -42.6046       7 -42.5328       8 -42.6627       9 -42.6988      10 -42.6643
      11 -42.5766      12 -42.5605      13 -42.5092      14 -42.5103
 
 
 
 E-fermi :  -6.9573     XC(G=0):  -0.8481     alpha+bet : -0.3168


 k-point     1 :       0.1250    0.1250    0.0000
  band No.  band energies     occupation 
      1     -19.6667      2.00000
      2     -17.9316      2.00000
      3     -16.0353      2.00000
      4     -14.0393      2.00000
      5     -11.2208      2.00000
      6     -10.8388      2.00000
      7     -10.2274      2.00000
      8      -9.5475      2.00000
      9      -9.3230      2.00000
     10      -8.9316      2.00000
     11      -8.0268      2.00000
     12      -7.7616      2.00000
     13      -7.2162      2.00000
     14      -1.0685      0.00000
     15      -0.4582      0.00000
     16       0.0337      0.00000
     17       0.2033      0.00000
     18       0.3529      0.00000
     19       0.4762      0.00000
     20       0.5817      0.00000
     21       0.8044      0.00000
     22       0.8899      0.00000
     23       1.0340      0.00000
     24       1.1386      0.00000

 k-point     2 :       0.3750    0.1250    0.0000
  band No.  band energies     occupation 
      1     -19.6667      2.00000
      2     -17.9316      2.00000
      3     -16.0353      2.00000
      4     -14.0391      2.00000
      5     -11.2217      2.00000
      6     -10.8389      2.00000
      7     -10.2266      2.00000
      8      -9.5476      2.00000
      9      -9.3211      2.00000
     10      -8.9306      2.00000
     11      -8.0293      2.00000
     12      -7.7615      2.00000
     13      -7.2158      2.00000
     14      -0.8061      0.00000
     15      -0.2174      0.00000
     16      -0.1150      0.00000
     17       0.1386      0.00000
     18       0.2972      0.00000
     19       0.3701      0.00000
     20       0.5816      0.00000
     21       0.7165      0.00000
     22       0.7895      0.00000
     23       0.9751      0.00000
     24       1.0994      0.00000

 k-point     3 :      -0.3750    0.1250    0.0000
  band No.  band energies     occupation 
      1     -19.6667      2.00000
      2     -17.9316      2.00000
      3     -16.0353      2.00000
      4     -14.0390      2.00000
      5     -11.2216      2.00000
      6     -10.8390      2.00000
      7     -10.2265      2.00000
      8      -9.5478      2.00000
      9      -9.3211      2.00000
     10      -8.9306      2.00000
     11      -8.0293      2.00000
     12      -7.7616      2.00000
     13      -7.2160      2.00000
     14      -0.6179      0.00000
     15      -0.2669      0.00000
     16      -0.2298      0.00000
     17       0.0155      0.00000
     18       0.3243      0.00000
     19       0.4044      0.00000
     20       0.4883      0.00000
     21       0.5367      0.00000
     22       0.9038      0.00000
     23       0.9370      0.00000
     24       1.0017      0.00000

 k-point     4 :      -0.1250    0.1250    0.0000
  band No.  band energies     occupation 
      1     -19.6667      2.00000
      2     -17.9316      2.00000
      3     -16.0352      2.00000
      4     -14.0393      2.00000
      5     -11.2207      2.00000
      6     -10.8389      2.00000
      7     -10.2274      2.00000
      8      -9.5476      2.00000
      9      -9.3230      2.00000
     10      -8.9317      2.00000
     11      -8.0268      2.00000
     12      -7.7617      2.00000
     13      -7.2165      2.00000
     14      -0.9999      0.00000
     15      -0.3963      0.00000
     16      -0.1688      0.00000
     17       0.1176      0.00000
     18       0.4229      0.00000
     19       0.5527      0.00000
     20       0.6040      0.00000
     21       0.7748      0.00000
     22       0.8699      0.00000
     23       0.9569      0.00000
     24       1.0595      0.00000

 k-point     5 :       0.1250    0.3750    0.0000
  band No.  band energies     occupation 
      1     -19.6667      2.00000
      2     -17.9316      2.00000
      3     -16.0352      2.00000
      4     -14.0392      2.00000
      5     -11.2206      2.00000
      6     -10.8389      2.00000
      7     -10.2274      2.00000
      8      -9.5476      2.00000
      9      -9.3230      2.00000
     10      -8.9316      2.00000
     11      -8.0268      2.00000
     12      -7.7617      2.00000
     13      -7.2166      2.00000
     14      -0.9474      0.00000
     15      -0.3347      0.00000
     16      -0.2973      0.00000
     17       0.1645      0.00000
     18       0.2409      0.00000
     19       0.3754      0.00000
     20       0.6232      0.00000
     21       0.7815      0.00000
     22       0.8992      0.00000
     23       1.0156      0.00000
     24       1.1606      0.00000

 k-point     6 :       0.3750    0.3750    0.0000
  band No.  band energies     occupation 
      1     -19.6667      2.00000
      2     -17.9316      2.00000
      3     -16.0354      2.00000
      4     -14.0391      2.00000
      5     -11.2219      2.00000
      6     -10.8389      2.00000
      7     -10.2267      2.00000
      8      -9.5477      2.00000
      9      -9.3211      2.00000
     10      -8.9307      2.00000
     11      -8.0295      2.00000
     12      -7.7614      2.00000
     13      -7.2156      2.00000
     14      -0.8195      0.00000
     15      -0.3254      0.00000
     16      -0.1797      0.00000
     17       0.2546      0.00000
     18       0.3313      0.00000
     19       0.3724      0.00000
     20       0.6873      0.00000
     21       0.7716      0.00000
     22       0.8431      0.00000
     23       0.9211      0.00000
     24       1.0876      0.00000

 k-point     7 :      -0.3750    0.3750    0.0000
  band No.  band energies     occupation 
      1     -19.6667      2.00000
      2     -17.9316      2.00000
      3     -16.0353      2.00000
      4     -14.0391      2.00000
      5     -11.2217      2.00000
      6     -10.8389      2.00000
      7     -10.2266      2.00000
      8      -9.5477      2.00000
      9      -9.3211      2.00000
     10      -8.9306      2.00000
     11      -8.0294      2.00000
     12      -7.7615      2.00000
     13      -7.2158      2.00000
     14      -0.6514      0.00000
     15      -0.3711      0.00000
     16      -0.1886      0.00000
     17       0.0124      0.00000
     18       0.2793      0.00000
     19       0.3978      0.00000
     20       0.5126      0.00000
     21       0.8148      0.00000
     22       0.8855      0.00000
     23       0.9408      0.00000
     24       1.0466      0.00000

 k-point     8 :      -0.1250    0.3750    0.0000
  band No.  band energies     occupation 
      1     -19.6667      2.00000
      2     -17.9316      2.00000
      3     -16.0352      2.00000
      4     -14.0392      2.00000
      5     -11.2206      2.00000
      6     -10.8390      2.00000
      7     -10.2274      2.00000
      8      -9.5478      2.00000
      9      -9.3230      2.00000
     10      -8.9317      2.00000
     11      -8.0269      2.00000
     12      -7.7620      2.00000
     13      -7.2168      2.00000
     14      -0.7707      0.00000
     15      -0.5981      0.00000
     16      -0.1495      0.00000
     17       0.0049      0.00000
     18       0.3408      0.00000
     19       0.3865      0.00000
     20       0.5304      0.00000
     21       0.8021      0.00000
     22       0.8880      0.00000
     23       0.9531      0.00000
     24       1.0983      0.00000


--------------------------------------------------------------------------------------------------------


 soft charge-density along one line, spin component           1
         0         1         2         3         4         5         6         7         8         9
 total charge-density along one line
 
 pseudopotential strength for first ion, spin component:           1
 10.260   0.020  -0.000  -0.000  -0.000   0.000   0.001  -0.000
  0.020  -0.001  -0.000  -0.000   0.000   0.000   0.000  -0.000
 -0.000  -0.000  -4.245   0.000  -0.001  -0.013   0.000  -0.000
 -0.000  -0.000   0.000  -4.246   0.001   0.000  -0.013   0.000
 -0.000   0.000  -0.001   0.001  -4.247  -0.000   0.000  -0.014
  0.000   0.000  -0.013   0.000  -0.000  -0.772   0.000   0.000
  0.001   0.000   0.000  -0.013   0.000   0.000  -0.772  -0.000
 -0.000  -0.000  -0.000   0.000  -0.014   0.000  -0.000  -0.772
 total augmentation occupancy for first ion, spin component:           1
  1.438  -1.143  -0.015  -0.025   0.003  -0.009  -0.009   0.000
 -1.143   1.019   0.032   0.024   0.001   0.002   0.005   0.003
 -0.015   0.032   1.096  -0.003   0.035   0.186  -0.004   0.003
 -0.025   0.024  -0.003   1.092  -0.030  -0.004   0.191  -0.001
  0.003   0.001   0.035  -0.030   1.109   0.003  -0.001   0.195
 -0.009   0.002   0.186  -0.004   0.003   0.034  -0.002  -0.001
 -0.009   0.005  -0.004   0.191  -0.001  -0.002   0.036   0.001
  0.000   0.003   0.003  -0.001   0.195  -0.001   0.001   0.036


------------------------ aborting loop because EDIFF is reached ----------------------------------------


    CHARGE:  cpu time    0.2705: real time    0.2711
    FORLOC:  cpu time    0.0309: real time    0.0310
    FORNL :  cpu time    1.3322: real time    1.3355
    STRESS:  cpu time    4.1213: real time    4.1313
    FORHAR:  cpu time    0.0826: real time    0.0829
    MIXING:  cpu time    0.0074: real time    0.0074
    OFIELD:  cpu time    0.0000: real time    0.0000

  FORCE on cell =-STRESS in cart. coord.  units (eV):
  Direction    XX          YY          ZZ          XY          YZ          ZX
  --------------------------------------------------------------------------------------
  Alpha Z     1.28650     1.28650     1.28650
  Ewald    1301.18980  1367.68421  -962.57277   -74.94681  -180.28709   126.87423
  Hartree  1488.73536  1531.07376  -735.87280   -65.47088  -142.84262   101.19303
  E(xc)     -94.47823   -94.87234   -94.78481     0.07797     0.07170    -0.17633
  Local   -3002.74483 -3117.34680  1480.83323   141.77237   324.37932  -231.23985
  n-local   -43.69623   -43.14592   -43.83803    -0.12679    -0.67815     0.40259
  augment    -0.15428    -0.10544    -0.12178    -0.01096    -0.01791     0.03094
  Kinetic   347.65068   354.62614   354.20650    -1.43230     0.01991     2.95814
  Fock        0.00000     0.00000     0.00000     0.00000     0.00000     0.00000
  -------------------------------------------------------------------------------------
  Total      -2.21123    -0.79988    -0.86396    -0.13740     0.64515     0.04275
  in kB      -1.65624    -0.59912    -0.64712    -0.10291     0.48323     0.03202
  external pressure =       -0.97 kB  Pullay stress =        0.00 kB


 VOLUME and BASIS-vectors are now :
 -----------------------------------------------------------------------------
  energy-cutoff  :      400.00
  volume of cell :     2139.05
      direct lattice vectors                 reciprocal lattice vectors
     8.315575747  0.000000000  0.000000000     0.120256255 -0.069429981  0.000000000
     5.543717165  9.601999792  0.000000000     0.000000000  0.104144972  0.000000000
     0.000000000  0.000000000 26.789639166     0.000000000  0.000000000  0.037327864

  length of vectors
     8.315575747 11.087434329 26.789639166     0.138859963  0.104144972  0.037327864


 FORCES acting on ions
    electron-ion (+dipol)            ewald-force                    non-local-force                 convergence-correction
 -----------------------------------------------------------------------------------------------
   -.129E+02 0.832E+02 0.300E+02   0.130E+02 -.829E+02 -.294E+02   -.324E+00 -.235E+00 0.277E+00   -.332E-01 0.552E-01 0.572E-02
   -.192E+02 -.109E+03 0.526E+02   0.190E+02 0.109E+03 -.522E+02   0.123E+00 0.233E+00 0.505E+00   -.256E-01 -.562E-01 0.429E-02
   0.858E+02 -.193E+02 0.208E+01   -.849E+02 0.194E+02 -.966E+00   -.119E+01 -.124E+01 -.368E+01   0.761E-01 -.223E-01 0.536E-02
   -.553E+02 0.339E+02 -.115E+03   0.549E+02 -.338E+02 0.115E+03   0.574E+00 0.461E+00 0.864E+00   -.527E-01 0.164E-02 -.473E-01
   0.349E+02 0.220E+02 0.656E+02   -.367E+02 -.238E+02 -.703E+02   0.181E+01 0.197E+01 0.456E+01   0.175E-01 0.671E-02 0.192E-01
   -.452E+02 0.193E+02 0.564E+02   0.491E+02 -.198E+02 -.609E+02   -.382E+01 0.366E+00 0.430E+01   -.243E-01 0.402E-02 0.163E-01
   0.366E+02 0.629E+02 0.755E+01   -.399E+02 -.677E+02 -.791E+01   0.346E+01 0.452E+01 0.262E+00   0.152E-01 0.235E-01 -.366E-03
   0.113E+02 -.280E+02 0.691E+02   -.127E+02 0.295E+02 -.746E+02   0.134E+01 -.140E+01 0.543E+01   0.198E-02 -.205E-02 0.369E-02
   0.657E+02 -.321E+01 -.256E+02   -.705E+02 0.364E+01 0.288E+02   0.522E+01 0.847E-01 -.212E+01   0.321E-01 -.873E-03 -.969E-02
   -.620E+02 -.179E+02 0.832E+01   0.677E+02 0.176E+02 -.799E+01   -.565E+01 0.243E+00 -.332E+00   -.150E-01 -.103E-02 -.247E-02
   0.303E+01 0.532E+02 -.501E+02   -.392E+01 -.580E+02 0.530E+02   0.878E+00 0.474E+01 -.305E+01   -.217E-02 0.434E-02 -.105E-02
   0.146E+02 -.581E+02 -.292E+02   -.162E+02 0.626E+02 0.326E+02   0.162E+01 -.430E+01 -.334E+01   0.287E-02 -.912E-02 -.656E-02
   -.647E+02 -.961E+00 -.114E+02   0.702E+02 0.148E+01 0.107E+02   -.555E+01 -.621E+00 0.572E+00   -.154E-01 -.222E-02 0.272E-02
   0.736E+01 -.387E+02 -.611E+02   -.902E+01 0.431E+02 0.645E+02   0.155E+01 -.427E+01 -.338E+01   -.231E-02 -.531E-02 -.482E-02
 -----------------------------------------------------------------------------------------------
   -.305E-01 -.548E+00 -.858E+00   0.409E-13 0.497E-13 -.568E-13   0.520E-01 0.545E+00 0.864E+00   -.250E-01 -.378E-02 -.149E-01
 
 
 POSITION                                       TOTAL-FORCE (eV/Angst)
 -----------------------------------------------------------------------------------
      6.49023      3.74671     10.23810        -0.320357      0.115271      0.897023
      6.21364      6.27150      9.47555        -0.092051      0.142544      0.898054
      5.56331      4.93918      9.90339        -0.295931     -1.164139     -2.559838
      7.24098      3.70922     11.59150         0.140309      0.539577      0.104310
      5.19057      4.52980      8.93722         0.023965      0.233508     -0.039113
      7.21191      3.68116      9.42320         0.045875     -0.157425     -0.114273
      5.82884      2.87658     10.18590         0.199675     -0.211046     -0.102041
      5.95483      6.53009      8.44926        -0.038783      0.043478     -0.028470
      4.57219      4.94748     10.36790         0.479246      0.508599      1.083673
      7.30369      6.21228      9.53980         0.017924     -0.020818     -0.010011
      7.06780      2.79542     12.16340        -0.014607     -0.104748     -0.142011
      5.90268      7.09871     10.11830         0.056603      0.105283      0.003053
      8.32454      3.82672     11.46830        -0.084298     -0.104642     -0.043978
      6.93479      4.53516     12.23820        -0.117570      0.074560      0.053621
 -----------------------------------------------------------------------------------
    total drift:                               -0.003426     -0.007068     -0.008394


--------------------------------------------------------------------------------------------------------



  FREE ENERGIE OF THE ION-ELECTRON SYSTEM (eV)
  ---------------------------------------------------
  free  energy   TOTEN  =       -77.11938188 eV

  energy  without entropy=      -77.11938188  energy(sigma->0) =      -77.11938188
 


--------------------------------------------------------------------------------------------------------


    POTLOK:  cpu time   10.9824: real time   11.0161


--------------------------------------------------------------------------------------------------------


 stress matrix after NEB project (eV)
     -2.21123     -0.13740      0.04275
     -0.13740     -0.79988      0.64515
      0.04275      0.64515     -0.86396
  FORCES: max atom, RMS     2.827643    0.926599
  FORCE total and by dimension    3.467014    2.559838
  Stress total and by dimension    2.673879    2.211231
 writing wavefunctions
     LOOP+:  cpu time  139.9310: real time  141.0292
    4ORBIT:  cpu time    0.0000: real time    0.0000

 total amount of memory used by VASP MPI-rank0   137024. kBytes
=======================================================================

   base      :      30000. kBytes
   nonlr-proj:       2167. kBytes
   fftplans  :      62912. kBytes
   grid      :      34429. kBytes
   one-center:         21. kBytes
   wavefun   :       7495. kBytes
 
  
  
 General timing and accounting informations for this job:
 ========================================================
  
                  Total CPU time used (sec):      144.562
                            User time (sec):      141.879
                          System time (sec):        2.683
                         Elapsed time (sec):      146.757
  
                   Maximum memory used (kb):      485056.
                   Average memory used (kb):           0.
  
                          Minor page faults:       108916
                          Major page faults:            0
                 Voluntary context switches:         2511
