<?xml version="1.0" encoding="ISO-8859-1"?>
<modeling>
 <generator>
  <i name="program" type="string">vasp </i>
  <i name="version" type="string">5.4.4.18Apr17-6-g9f103f2a35  </i>
  <i name="subversion" type="string">(build Dec 31 2018 11:41:54) complex            parallel </i>
  <i name="platform" type="string">LinuxIFC </i>
  <i name="date" type="string">2022 10 13 </i>
  <i name="time" type="string">20:01:38 </i>
 </generator>
 <incar>
  <i type="int" name="ISTART">     1</i>
  <i type="string" name="PREC">acc</i>
  <i type="string" name="ALGO"> normal</i>
  <i type="logical" name="ADDGRID"> T  </i>
  <i type="int" name="ISPIN">     1</i>
  <i type="int" name="ICHARG">     2</i>
  <i type="int" name="NELM">   100</i>
  <i type="int" name="IBRION">    -1</i>
  <i name="EDIFF">      0.00100000</i>
  <i name="ENCUT">    400.00000000</i>
  <i type="string" name="LREAL"> Auto</i>
  <i type="int" name="ISMEAR">     0</i>
  <i name="SIGMA">      0.05000000</i>
  <i type="logical" name="LWAVE"> T  </i>
  <i type="logical" name="LCHARG"> F  </i>
  <v type="int" name="KPOINT_BSE">    -1     0     0     0</v>
  <i type="int" name="NELM">   100</i>
  <i type="string" name="GGA"> BF</i>
  <i type="logical" name="LUSE_VDW"> T  </i>
  <i name="Zab_VDW">     -1.88670000</i>
 </incar>
 <structure name="primitive_cell" >
  <crystal>
   <varray name="basis" >
    <v>       8.31557575       0.00000000       0.00000000 </v>
    <v>       5.54371716       9.60199979       0.00000000 </v>
    <v>       0.00000000       0.00000000      26.78963917 </v>
   </varray>
   <i name="volume">   2139.04972377 </i>
   <varray name="rec_basis" >
    <v>       0.12025626      -0.06942998       0.00000000 </v>
    <v>       0.00000000       0.10414497       0.00000000 </v>
    <v>       0.00000000       0.00000000       0.03732786 </v>
   </varray>
  </crystal>
  <varray name="positions" >
   <v>      -0.47964325       0.39020101       0.38216640 </v>
   <v>      -0.38830558       0.38337431       0.35174793 </v>
   <v>      -0.49876642       0.29958134       0.38021789 </v>
   <v>       0.32609565      -0.48560924       0.36967239 </v>
   <v>      -0.38675794       0.38629661       0.43268593 </v>
   <v>       0.30969458       0.47175589       0.33360733 </v>
   <v>      -0.48092420       0.47231411       0.45682586 </v>
   <v>      -0.26461109       0.39853365       0.42808714 </v>
   <v>      -0.34413880       0.29112894       0.45403374 </v>
   <v>       0.20633100      -0.48474483       0.38701156 </v>
   <v>       0.31179895      -0.34685481       0.35370204 </v>
   <v>       0.44699592      -0.35302227       0.35610035 </v>
   <v>       0.26272153      -0.31992396       0.31539283 </v>
   <v>       0.21697089      -0.26070505       0.37769452 </v>
  </varray>
 </structure>
 <varray name="primitive_index" >
  <v type="int" >        1 </v>
  <v type="int" >        6 </v>
  <v type="int" >        7 </v>
  <v type="int" >        3 </v>
  <v type="int" >        4 </v>
  <v type="int" >        5 </v>
  <v type="int" >       14 </v>
  <v type="int" >       13 </v>
  <v type="int" >       11 </v>
  <v type="int" >        9 </v>
  <v type="int" >        2 </v>
  <v type="int" >       10 </v>
  <v type="int" >        8 </v>
  <v type="int" >       12 </v>
 </varray>
 <kpoints>
  <generation param="Monkhorst-Pack">
   <v type="int" name="divisions">       4        4        1 </v>
   <v name="usershift">      0.00000000       0.00000000       0.00000000 </v>
   <v name="genvec1">      0.25000000      -0.00000000       0.00000000 </v>
   <v name="genvec2">      0.00000000       0.25000000       0.00000000 </v>
   <v name="genvec3">      0.00000000       0.00000000       1.00000000 </v>
   <v name="shift">      0.50000000       0.50000000       0.00000000 </v>
  </generation>
  <varray name="kpointlist" >
   <v>       0.12500000       0.12500000       0.00000000 </v>
   <v>       0.37500000       0.12500000       0.00000000 </v>
   <v>      -0.37500000       0.12500000       0.00000000 </v>
   <v>      -0.12500000       0.12500000       0.00000000 </v>
   <v>       0.12500000       0.37500000       0.00000000 </v>
   <v>       0.37500000       0.37500000       0.00000000 </v>
   <v>      -0.37500000       0.37500000       0.00000000 </v>
   <v>      -0.12500000       0.37500000       0.00000000 </v>
  </varray>
  <varray name="weights" >
   <v>       0.12500000 </v>
   <v>       0.12500000 </v>
   <v>       0.12500000 </v>
   <v>       0.12500000 </v>
   <v>       0.12500000 </v>
   <v>       0.12500000 </v>
   <v>       0.12500000 </v>
   <v>       0.12500000 </v>
  </varray>
 </kpoints>
 <parameters>
  <separator name="general" >
   <i type="string" name="SYSTEM">unknown system</i>
   <i type="logical" name="LCOMPAT"> F  </i>
  </separator>
  <separator name="electronic" >
   <i type="string" name="PREC">acc</i>
   <i name="ENMAX">    400.00000000</i>
   <i name="ENAUG">    644.87300000</i>
   <i name="EDIFF">      0.00100000</i>
   <i type="int" name="IALGO">    38</i>
   <i type="int" name="IWAVPR">    10</i>
   <i type="int" name="NBANDS">    24</i>
   <i name="NELECT">     26.00000000</i>
   <i type="int" name="TURBO">     0</i>
   <i type="int" name="IRESTART">     0</i>
   <i type="int" name="NREBOOT">     0</i>
   <i type="int" name="NMIN">     0</i>
   <i name="EREF">      0.00000000</i>
   <separator name="electronic smearing" >
    <i type="int" name="ISMEAR">     0</i>
    <i name="SIGMA">      0.05000000</i>
    <i name="KSPACING">      0.50000000</i>
    <i type="logical" name="KGAMMA"> T  </i>
   </separator>
   <separator name="electronic projectors" >
    <i type="logical" name="LREAL"> T  </i>
    <v name="ROPT">     -0.00025000     -0.00025000</v>
    <i type="int" name="LMAXPAW">  -100</i>
    <i type="int" name="LMAXMIX">     2</i>
    <i type="logical" name="NLSPLINE"> F  </i>
   </separator>
   <separator name="electronic startup" >
    <i type="int" name="ISTART">     1</i>
    <i type="int" name="ICHARG">     2</i>
    <i type="int" name="INIWAV">     1</i>
   </separator>
   <separator name="electronic spin" >
    <i type="int" name="ISPIN">     1</i>
    <i type="logical" name="LNONCOLLINEAR"> F  </i>
    <v name="MAGMOM">      1.00000000      1.00000000      1.00000000      1.00000000      1.00000000      1.00000000      1.00000000      1.00000000      1.00000000      1.00000000      1.00000000      1.00000000      1.00000000      1.00000000</v>
    <i name="NUPDOWN">     -1.00000000</i>
    <i type="logical" name="LSORBIT"> F  </i>
    <v name="SAXIS">      0.00000000      0.00000000      1.00000000</v>
    <i type="logical" name="LSPIRAL"> F  </i>
    <v name="QSPIRAL">      0.00000000      0.00000000      0.00000000</v>
    <i type="logical" name="LZEROZ"> F  </i>
   </separator>
   <separator name="electronic exchange-correlation" >
    <i type="logical" name="LASPH"> F  </i>
    <i type="logical" name="LMETAGGA"> F  </i>
   </separator>
   <separator name="electronic convergence" >
    <i type="int" name="NELM">   100</i>
    <i type="int" name="NELMDL">     0</i>
    <i type="int" name="NELMIN">     2</i>
    <i name="ENINI">    400.00000000</i>
    <separator name="electronic convergence detail" >
     <i type="logical" name="LDIAG"> T  </i>
     <i type="logical" name="LSUBROT"> F  </i>
     <i name="WEIMIN">      0.00000000</i>
     <i name="EBREAK">      0.00001042</i>
     <i name="DEPER">      0.30000000</i>
     <i type="int" name="NRMM">     4</i>
     <i name="TIME">      0.40000000</i>
    </separator>
   </separator>
   <separator name="electronic mixer" >
    <i name="AMIX">      0.40000000</i>
    <i name="BMIX">      1.00000000</i>
    <i name="AMIN">      0.10000000</i>
    <i name="AMIX_MAG">      1.60000000</i>
    <i name="BMIX_MAG">      1.00000000</i>
    <separator name="electronic mixer details" >
     <i type="int" name="IMIX">     4</i>
     <i type="logical" name="MIXFIRST"> F  </i>
     <i type="int" name="MAXMIX">   -45</i>
     <i name="WC">    100.00000000</i>
     <i type="int" name="INIMIX">     1</i>
     <i type="int" name="MIXPRE">     1</i>
     <i type="int" name="MREMOVE">     5</i>
    </separator>
   </separator>
   <separator name="electronic dipolcorrection" >
    <i type="logical" name="LDIPOL"> F  </i>
    <i type="logical" name="LMONO"> F  </i>
    <i type="int" name="IDIPOL">     0</i>
    <i name="EPSILON">      1.00000000</i>
    <v name="DIPOL">   -100.00000000   -100.00000000   -100.00000000</v>
    <i name="EFIELD">      0.00000000</i>
   </separator>
  </separator>
  <separator name="grids" >
   <i type="int" name="NGX">    54</i>
   <i type="int" name="NGY">    72</i>
   <i type="int" name="NGZ">   180</i>
   <i type="int" name="NGXF">   108</i>
   <i type="int" name="NGYF">   144</i>
   <i type="int" name="NGZF">   360</i>
   <i type="logical" name="ADDGRID"> T  </i>
  </separator>
  <separator name="ionic" >
   <i type="int" name="NSW">     0</i>
   <i type="int" name="IBRION">    -1</i>
   <i type="int" name="MDALGO">     0</i>
   <i type="int" name="ISIF">     2</i>
   <i name="PSTRESS">      0.00000000</i>
   <i name="EDIFFG">      0.01000000</i>
   <i type="int" name="NFREE">     0</i>
   <i name="POTIM">      0.50000000</i>
   <i name="SMASS">     -3.00000000</i>
   <i name="SCALEE">      1.00000000</i>
  </separator>
  <separator name="ionic md" >
   <i name="TEBEG">      0.00010000</i>
   <i name="TEEND">      0.00010000</i>
   <i type="int" name="NBLOCK">     1</i>
   <i type="int" name="KBLOCK">     1</i>
   <i type="int" name="NPACO">   256</i>
   <i name="APACO">     16.00000000</i>
  </separator>
  <separator name="symmetry" >
   <i type="int" name="ISYM">     2</i>
   <i name="SYMPREC">      0.00001000</i>
  </separator>
  <separator name="dos" >
   <i type="int" name="LORBIT">     0</i>
   <v name="RWIGS">     -1.00000000     -1.00000000</v>
   <i type="int" name="NEDOS">   301</i>
   <i name="EMIN">     10.00000000</i>
   <i name="EMAX">    -10.00000000</i>
   <i name="EFERMI">      0.00000000</i>
  </separator>
  <separator name="writing" >
   <i type="int" name="NWRITE">     2</i>
   <i type="logical" name="LWAVE"> T  </i>
   <i type="logical" name="LDOWNSAMPLE"> F  </i>
   <i type="logical" name="LCHARG"> F  </i>
   <i type="logical" name="LPARD"> F  </i>
   <i type="logical" name="LVTOT"> F  </i>
   <i type="logical" name="LVHAR"> F  </i>
   <i type="logical" name="LELF"> F  </i>
   <i type="logical" name="LOPTICS"> F  </i>
   <v name="STM">      0.00000000      0.00000000      0.00000000      0.00000000      0.00000000      0.00000000      0.00000000</v>
  </separator>
  <separator name="performance" >
   <i type="int" name="NPAR">     8</i>
   <i type="int" name="NSIM">     4</i>
   <i type="int" name="NBLK">    -1</i>
   <i type="logical" name="LPLANE"> T  </i>
   <i type="logical" name="LSCALAPACK"> T  </i>
   <i type="logical" name="LSCAAWARE"> F  </i>
   <i type="logical" name="LSCALU"> F  </i>
   <i type="logical" name="LASYNC"> F  </i>
   <i type="logical" name="LORBITALREAL"> F  </i>
  </separator>
  <separator name="miscellaneous" >
   <i type="int" name="IDIOT">     3</i>
   <i type="int" name="ISPECIAL">     0</i>
   <i type="logical" name="LMUSIC"> F  </i>
   <v name="POMASS">     12.01100000      1.00000000</v>
   <v name="DARWINR">      0.00000000      0.00000000</v>
   <v name="DARWINV">      1.00000000      1.00000000</v>
   <i type="logical" name="LCORR"> T  </i>
  </separator>
  <i type="logical" name="GGA_COMPAT"> T  </i>
  <i type="logical" name="LBERRY"> F  </i>
  <i type="int" name="ICORELEVEL">     0</i>
  <i type="logical" name="LDAU"> F  </i>
  <i type="int" name="I_CONSTRAINED_M">     0</i>
  <separator name="electronic exchange-correlation" >
   <i type="string" name="GGA">BF</i>
   <i type="int" name="VOSKOWN">     0</i>
   <i type="logical" name="LHFCALC"> F  </i>
   <i type="string" name="PRECFOCK"></i>
   <i type="logical" name="LSYMGRAD"> F  </i>
   <i type="logical" name="LHFONE"> F  </i>
   <i type="logical" name="LRHFCALC"> F  </i>
   <i type="logical" name="LTHOMAS"> F  </i>
   <i type="logical" name="LMODELHF"> F  </i>
   <i name="ENCUT4O">     -1.00000000</i>
   <i type="int" name="EXXOEP">     0</i>
   <i type="int" name="FOURORBIT">     0</i>
   <i name="AEXX">      0.00000000</i>
   <i name="HFALPHA">      0.00000000</i>
   <i name="MCALPHA">      0.00000000</i>
   <i name="ALDAX">      1.00000000</i>
   <i name="AGGAX">      1.00000000</i>
   <i name="ALDAC">      1.00000000</i>
   <i name="AGGAC">      1.00000000</i>
   <i type="int" name="NKREDX">     1</i>
   <i type="int" name="NKREDY">     1</i>
   <i type="int" name="NKREDZ">     1</i>
   <i type="logical" name="SHIFTRED"> F  </i>
   <i type="logical" name="ODDONLY"> F  </i>
   <i type="logical" name="EVENONLY"> F  </i>
   <i type="int" name="LMAXFOCK">     0</i>
   <i type="int" name="NMAXFOCKAE">     0</i>
   <i type="logical" name="LFOCKAEDFT"> F  </i>
   <i name="HFSCREEN">      0.00000000</i>
   <i name="HFSCREENC">      0.00000000</i>
   <i type="int" name="NBANDSGWLOW">     0</i>
  </separator>
  <separator name="vdW DFT" >
   <i type="logical" name="LUSE_VDW"> T  </i>
   <i name="Zab_VDW">     -1.88670000</i>
   <i name="PARAM1">      0.12340000</i>
   <i name="PARAM2">      1.00000000</i>
   <i name="PARAM3">      0.00000000</i>
  </separator>
  <separator name="model GW" >
   <i type="int" name="MODEL_GW">     0</i>
   <i name="MODEL_EPS0">     91.67355959</i>
   <i name="MODEL_ALPHA">      1.00000000</i>
  </separator>
  <separator name="linear response parameters" >
   <i type="logical" name="LEPSILON"> F  </i>
   <i type="logical" name="LRPA"> F  </i>
   <i type="logical" name="LNABLA"> F  </i>
   <i type="logical" name="LVEL"> F  </i>
   <i type="int" name="KINTER">     0</i>
   <i name="CSHIFT">      0.10000000</i>
   <i name="OMEGAMAX">     -1.00000000</i>
   <i name="DEG_THRESHOLD">      0.00200000</i>
   <i name="RTIME">     -0.10000000</i>
   <i name="WPLASMAI">      0.00000000</i>
   <v name="DFIELD">      0.00000000      0.00000000      0.00000000</v>
   <v name="WPLASMA">      0.00000000      0.00000000      0.00000000      0.00000000      0.00000000      0.00000000      0.00000000      0.00000000      0.00000000</v>
  </separator>
  <separator name="orbital magnetization" >
   <i type="logical" name="NUCIND"> F  </i>
   <v name="MAGPOS">      0.00000000      0.00000000      0.00000000</v>
   <i type="logical" name="LNICSALL"> T  </i>
   <i type="logical" name="ORBITALMAG"> F  </i>
   <i type="logical" name="LMAGBLOCH"> F  </i>
   <i type="logical" name="LCHIMAG"> F  </i>
   <i type="logical" name="LGAUGE"> T  </i>
   <i type="int" name="MAGATOM">     0</i>
   <v name="MAGDIPOL">      0.00000000      0.00000000      0.00000000</v>
   <v name="AVECCONST">      0.00000000      0.00000000      0.00000000</v>
  </separator>
  <separator name="response functions" >
   <i type="logical" name="LADDER"> F  </i>
   <i type="logical" name="LRPAFORCE"> F  </i>
   <i type="logical" name="LFXC"> F  </i>
   <i type="logical" name="LHARTREE"> T  </i>
   <i type="int" name="IBSE">     0</i>
   <v type="int" name="KPOINT">    -1     0     0     0</v>
   <i type="logical" name="LTCTE"> F  </i>
   <i type="logical" name="LTETE"> F  </i>
   <i type="logical" name="LTRIPLET"> F  </i>
   <i type="logical" name="LFXCEPS"> F  </i>
   <i type="logical" name="LFXHEG"> F  </i>
   <i type="int" name="NATURALO">     2</i>
   <i type="logical" name="L2ORDER"> F  </i>
   <i type="logical" name="LMP2LT"> F  </i>
   <i type="logical" name="LUSEW"> F  </i>
   <i name="ENCUTGW">     -2.00000000</i>
   <i name="ENCUTGWSOFT">     -2.00000000</i>
   <i name="ENCUTLF">     -1.00000000</i>
   <i type="int" name="LMAXMP2">    -1</i>
   <i name="SCISSOR">      0.00000000</i>
   <i type="int" name="NOMEGA">     0</i>
   <i type="int" name="NOMEGAR">     0</i>
   <i type="int" name="NBANDSGW">    -1</i>
   <i type="int" name="NBANDSO">    -1</i>
   <i type="int" name="NBANDSV">    -1</i>
   <i type="int" name="NELM">   100</i>
   <i type="int" name="NELMHF">     1</i>
   <i type="int" name="DIM">     3</i>
   <i type="int" name="ANTIRES">     0</i>
   <i name="OMEGAMAX">    -30.00000000</i>
   <i name="OMEGAMIN">    -30.00000000</i>
   <i name="OMEGATL">   -200.00000000</i>
   <i type="int" name="OMEGAGRID">   140</i>
   <i name="CSHIFT">     -0.10000000</i>
   <i type="logical" name="SELFENERGY"> F  </i>
   <i type="logical" name="LSPECTRAL"> F  </i>
   <i type="logical" name="LSPECTRALGW"> F  </i>
   <i type="logical" name="LSINGLES"> F  </i>
   <i type="logical" name="LFERMIGW"> F  </i>
   <i type="logical" name="ODDONLYGW"> F  </i>
   <i type="logical" name="EVENONLYGW"> F  </i>
   <i type="int" name="NKREDLFX">     1</i>
   <i type="int" name="NKREDLFY">     1</i>
   <i type="int" name="NKREDLFZ">     1</i>
   <i type="int" name="MAXMEM">  2800</i>
   <i type="int" name="TELESCOPE">     0</i>
   <i type="int" name="TAUPAR">     1</i>
   <i type="int" name="OMEGAPAR">    -1</i>
   <i name="LAMBDA">      1.00000000</i>
  </separator>
  <separator name="External order field" >
   <i name="OFIELD_KAPPA">      0.00000000</i>
   <v name="OFIELD_K">      0.00000000      0.00000000      0.00000000</v>
   <i name="OFIELD_Q6_NEAR">      0.00000000</i>
   <i name="OFIELD_Q6_FAR">      0.00000000</i>
   <i name="OFIELD_A">      0.00000000</i>
  </separator>
 </parameters>
 <atominfo>
  <atoms>      14 </atoms>
  <types>       2 </types>
  <array name="atoms" >
   <dimension dim="1">ion</dimension>
   <field type="string">element</field>
   <field type="int">atomtype</field>
   <set>
    <rc><c>C </c><c>   1</c></rc>
    <rc><c>C </c><c>   1</c></rc>
    <rc><c>C </c><c>   1</c></rc>
    <rc><c>C </c><c>   1</c></rc>
    <rc><c>H </c><c>   2</c></rc>
    <rc><c>H </c><c>   2</c></rc>
    <rc><c>H </c><c>   2</c></rc>
    <rc><c>H </c><c>   2</c></rc>
    <rc><c>H </c><c>   2</c></rc>
    <rc><c>H </c><c>   2</c></rc>
    <rc><c>H </c><c>   2</c></rc>
    <rc><c>H </c><c>   2</c></rc>
    <rc><c>H </c><c>   2</c></rc>
    <rc><c>H </c><c>   2</c></rc>
   </set>
  </array>
  <array name="atomtypes" >
   <dimension dim="1">type</dimension>
   <field type="int">atomspertype</field>
   <field type="string">element</field>
   <field>mass</field>
   <field>valence</field>
   <field type="string">pseudopotential</field>
   <set>
    <rc><c>   4</c><c>C </c><c>     12.01100000</c><c>      4.00000000</c><c> PAW_PBE C 08Apr2002                    </c></rc>
    <rc><c>  10</c><c>H </c><c>      1.00000000</c><c>      1.00000000</c><c> PAW_PBE H 15Jun2001                    </c></rc>
   </set>
  </array>
 </atominfo>
 <structure name="initialpos" >
  <crystal>
   <varray name="basis" >
    <v>       8.31557575       0.00000000       0.00000000 </v>
    <v>       5.54371716       9.60199979       0.00000000 </v>
    <v>       0.00000000       0.00000000      26.78963917 </v>
   </varray>
   <i name="volume">   2139.04972377 </i>
   <varray name="rec_basis" >
    <v>       0.12025626      -0.06942998       0.00000000 </v>
    <v>       0.00000000       0.10414497       0.00000000 </v>
    <v>       0.00000000       0.00000000       0.03732786 </v>
   </varray>
  </crystal>
  <varray name="positions" >
   <v>       0.52035675       0.39020101       0.38216640 </v>
   <v>       0.31179895       0.65314519       0.35370204 </v>
   <v>       0.32609565       0.51439076       0.36967239 </v>
   <v>       0.61324206       0.38629661       0.43268593 </v>
   <v>       0.30969458       0.47175589       0.33360733 </v>
   <v>       0.61169442       0.38337431       0.35174793 </v>
   <v>       0.50123358       0.29958134       0.38021789 </v>
   <v>       0.26272153       0.68007604       0.31539283 </v>
   <v>       0.20633100       0.51525517       0.38701156 </v>
   <v>       0.44699592       0.64697773       0.35610035 </v>
   <v>       0.65586120       0.29112894       0.45403374 </v>
   <v>       0.21697089       0.73929495       0.37769452 </v>
   <v>       0.73538891       0.39853365       0.42808714 </v>
   <v>       0.51907580       0.47231411       0.45682586 </v>
  </varray>
 </structure>
 <calculation>
  <scstep>
   <time name="dav">    2.66    2.67</time>
   <time name="total">   14.42   14.51</time>
   <energy>
    <i name="alphaZ">      1.28650428 </i>
    <i name="ewald">   1706.30161663 </i>
    <i name="hartreedc">  -2144.14076885 </i>
    <i name="XCdc">     78.86535585 </i>
    <i name="pawpsdc">    152.91373464 </i>
    <i name="pawaedc">   -159.42092291 </i>
    <i name="eentropy">     -0.00000000 </i>
    <i name="bandstr">   -442.01714305 </i>
    <i name="atom">    720.17582891 </i>
    <i name="e_fr_energy">    -86.03579449 </i>
    <i name="e_wo_entrp">    -86.03579449 </i>
    <i name="e_0_energy">    -86.03579449 </i>
   </energy>
  </scstep>
  <scstep>
   <time name="dav">    2.45    2.46</time>
   <time name="total">   13.67   13.74</time>
   <energy>
    <i name="e_fr_energy">    -79.48266592 </i>
    <i name="e_wo_entrp">    -79.48266592 </i>
    <i name="e_0_energy">    -79.48266592 </i>
   </energy>
  </scstep>
  <scstep>
   <time name="dav">    2.37    2.39</time>
   <time name="total">   13.61   13.66</time>
   <energy>
    <i name="e_fr_energy">    -77.46262960 </i>
    <i name="e_wo_entrp">    -77.46262960 </i>
    <i name="e_0_energy">    -77.46262960 </i>
   </energy>
  </scstep>
  <scstep>
   <time name="dav">    2.40    2.45</time>
   <time name="total">   13.65   13.73</time>
   <energy>
    <i name="e_fr_energy">    -77.20301415 </i>
    <i name="e_wo_entrp">    -77.20301415 </i>
    <i name="e_0_energy">    -77.20301415 </i>
   </energy>
  </scstep>
  <scstep>
   <time name="dav">    2.43    2.44</time>
   <time name="total">   13.68   13.72</time>
   <energy>
    <i name="e_fr_energy">    -77.15372324 </i>
    <i name="e_wo_entrp">    -77.15372324 </i>
    <i name="e_0_energy">    -77.15372324 </i>
   </energy>
  </scstep>
  <scstep>
   <time name="dav">    2.40    2.40</time>
   <time name="total">   13.63   13.70</time>
   <energy>
    <i name="e_fr_energy">    -77.14561161 </i>
    <i name="e_wo_entrp">    -77.14561161 </i>
    <i name="e_0_energy">    -77.14561161 </i>
   </energy>
  </scstep>
  <scstep>
   <time name="dav">    2.13    2.13</time>
   <time name="total">   13.38   13.46</time>
   <energy>
    <i name="e_fr_energy">    -77.12947477 </i>
    <i name="e_wo_entrp">    -77.12947477 </i>
    <i name="e_0_energy">    -77.12947477 </i>
   </energy>
  </scstep>
  <scstep>
   <time name="dav">    2.21    2.22</time>
   <time name="total">   13.45   13.49</time>
   <energy>
    <i name="e_fr_energy">    -77.12025782 </i>
    <i name="e_wo_entrp">    -77.12025782 </i>
    <i name="e_0_energy">    -77.12025782 </i>
   </energy>
  </scstep>
  <scstep>
   <time name="dav">    2.19    2.19</time>
   <time name="total">   13.19   13.27</time>
   <energy>
    <i name="alphaZ">      1.28650428 </i>
    <i name="ewald">   1706.30161663 </i>
    <i name="hartreedc">  -2283.23166077 </i>
    <i name="XCdc">     86.53761281 </i>
    <i name="pawpsdc">    319.98267523 </i>
    <i name="pawaedc">   -326.63873440 </i>
    <i name="eentropy">     -0.00000000 </i>
    <i name="bandstr">   -301.53322459 </i>
    <i name="atom">    720.17582891 </i>
    <i name="e_fr_energy">    -77.11938188 </i>
    <i name="e_wo_entrp">    -77.11938188 </i>
    <i name="e_0_energy">    -77.11938188 </i>
   </energy>
  </scstep>
  <structure>
   <crystal>
    <varray name="basis" >
     <v>       8.31557575       0.00000000       0.00000000 </v>
     <v>       5.54371716       9.60199979       0.00000000 </v>
     <v>       0.00000000       0.00000000      26.78963917 </v>
    </varray>
    <i name="volume">   2139.04972377 </i>
    <varray name="rec_basis" >
     <v>       0.12025626      -0.06942998       0.00000000 </v>
     <v>       0.00000000       0.10414497       0.00000000 </v>
     <v>       0.00000000       0.00000000       0.03732786 </v>
    </varray>
   </crystal>
   <varray name="positions" >
    <v>       0.52035675       0.39020101       0.38216640 </v>
    <v>       0.31179895       0.65314519       0.35370204 </v>
    <v>       0.32609565       0.51439076       0.36967239 </v>
    <v>       0.61324206       0.38629661       0.43268593 </v>
    <v>       0.30969458       0.47175589       0.33360733 </v>
    <v>       0.61169442       0.38337431       0.35174793 </v>
    <v>       0.50123358       0.29958134       0.38021789 </v>
    <v>       0.26272153       0.68007604       0.31539283 </v>
    <v>       0.20633100       0.51525517       0.38701156 </v>
    <v>       0.44699592       0.64697773       0.35610035 </v>
    <v>       0.65586120       0.29112894       0.45403374 </v>
    <v>       0.21697089       0.73929495       0.37769452 </v>
    <v>       0.73538891       0.39853365       0.42808714 </v>
    <v>       0.51907580       0.47231411       0.45682586 </v>
   </varray>
  </structure>
  <varray name="forces" >
   <v>      -0.32035680       0.11527070       0.89702287 </v>
   <v>      -0.09205089       0.14254413       0.89805426 </v>
   <v>      -0.29593066      -1.16413941      -2.55983770 </v>
   <v>       0.14030900       0.53957722       0.10431042 </v>
   <v>       0.02396512       0.23350763      -0.03911305 </v>
   <v>       0.04587453      -0.15742527      -0.11427347 </v>
   <v>       0.19967466      -0.21104609      -0.10204102 </v>
   <v>      -0.03878298       0.04347843      -0.02846985 </v>
   <v>       0.47924574       0.50859893       1.08367321 </v>
   <v>       0.01792362      -0.02081845      -0.01001067 </v>
   <v>      -0.01460661      -0.10474839      -0.14201106 </v>
   <v>       0.05660338       0.10528291       0.00305342 </v>
   <v>      -0.08429774      -0.10464216      -0.04397813 </v>
   <v>      -0.11757039       0.07455982       0.05362076 </v>
  </varray>
  <varray name="stress" >
   <v>      -1.65624209      -0.10291264       0.03201726 </v>
   <v>      -0.10291264      -0.59912159       0.48322557 </v>
   <v>       0.03201726       0.48322557      -0.64711928 </v>
  </varray>
  <energy>
   <i name="e_fr_energy">    -77.11938188 </i>
   <i name="e_wo_entrp">    -77.11938188 </i>
   <i name="e_0_energy">     -0.00000000 </i>
  </energy>
  <time name="totalsc">  139.93  141.03</time>
  <eigenvalues>
   <array>
    <dimension dim="1">band</dimension>
    <dimension dim="2">kpoint</dimension>
    <dimension dim="3">spin</dimension>
    <field>eigene</field>
    <field>occ</field>
    <set>
     <set comment="spin 1">
      <set comment="kpoint 1">
       <r>  -19.6667    1.0000 </r>
       <r>  -17.9316    1.0000 </r>
       <r>  -16.0353    1.0000 </r>
       <r>  -14.0393    1.0000 </r>
       <r>  -11.2208    1.0000 </r>
       <r>  -10.8388    1.0000 </r>
       <r>  -10.2274    1.0000 </r>
       <r>   -9.5475    1.0000 </r>
       <r>   -9.3230    1.0000 </r>
       <r>   -8.9316    1.0000 </r>
       <r>   -8.0268    1.0000 </r>
       <r>   -7.7616    1.0000 </r>
       <r>   -7.2162    1.0000 </r>
       <r>   -1.0685    0.0000 </r>
       <r>   -0.4582    0.0000 </r>
       <r>    0.0337    0.0000 </r>
       <r>    0.2033    0.0000 </r>
       <r>    0.3529    0.0000 </r>
       <r>    0.4762    0.0000 </r>
       <r>    0.5817    0.0000 </r>
       <r>    0.8044    0.0000 </r>
       <r>    0.8899    0.0000 </r>
       <r>    1.0340    0.0000 </r>
       <r>    1.1386    0.0000 </r>
      </set>
      <set comment="kpoint 2">
       <r>  -19.6667    1.0000 </r>
       <r>  -17.9316    1.0000 </r>
       <r>  -16.0353    1.0000 </r>
       <r>  -14.0391    1.0000 </r>
       <r>  -11.2217    1.0000 </r>
       <r>  -10.8389    1.0000 </r>
       <r>  -10.2266    1.0000 </r>
       <r>   -9.5476    1.0000 </r>
       <r>   -9.3211    1.0000 </r>
       <r>   -8.9306    1.0000 </r>
       <r>   -8.0293    1.0000 </r>
       <r>   -7.7615    1.0000 </r>
       <r>   -7.2158    1.0000 </r>
       <r>   -0.8061    0.0000 </r>
       <r>   -0.2174    0.0000 </r>
       <r>   -0.1150    0.0000 </r>
       <r>    0.1386    0.0000 </r>
       <r>    0.2972    0.0000 </r>
       <r>    0.3701    0.0000 </r>
       <r>    0.5816    0.0000 </r>
       <r>    0.7165    0.0000 </r>
       <r>    0.7895    0.0000 </r>
       <r>    0.9751    0.0000 </r>
       <r>    1.0994    0.0000 </r>
      </set>
      <set comment="kpoint 3">
       <r>  -19.6667    1.0000 </r>
       <r>  -17.9316    1.0000 </r>
       <r>  -16.0353    1.0000 </r>
       <r>  -14.0390    1.0000 </r>
       <r>  -11.2216    1.0000 </r>
       <r>  -10.8390    1.0000 </r>
       <r>  -10.2265    1.0000 </r>
       <r>   -9.5478    1.0000 </r>
       <r>   -9.3211    1.0000 </r>
       <r>   -8.9306    1.0000 </r>
       <r>   -8.0293    1.0000 </r>
       <r>   -7.7616    1.0000 </r>
       <r>   -7.2160    1.0000 </r>
       <r>   -0.6179    0.0000 </r>
       <r>   -0.2669    0.0000 </r>
       <r>   -0.2298    0.0000 </r>
       <r>    0.0155    0.0000 </r>
       <r>    0.3243    0.0000 </r>
       <r>    0.4044    0.0000 </r>
       <r>    0.4883    0.0000 </r>
       <r>    0.5367    0.0000 </r>
       <r>    0.9038    0.0000 </r>
       <r>    0.9370    0.0000 </r>
       <r>    1.0017    0.0000 </r>
      </set>
      <set comment="kpoint 4">
       <r>  -19.6667    1.0000 </r>
       <r>  -17.9316    1.0000 </r>
       <r>  -16.0352    1.0000 </r>
       <r>  -14.0393    1.0000 </r>
       <r>  -11.2207    1.0000 </r>
       <r>  -10.8389    1.0000 </r>
       <r>  -10.2274    1.0000 </r>
       <r>   -9.5476    1.0000 </r>
       <r>   -9.3230    1.0000 </r>
       <r>   -8.9317    1.0000 </r>
       <r>   -8.0268    1.0000 </r>
       <r>   -7.7617    1.0000 </r>
       <r>   -7.2165    1.0000 </r>
       <r>   -0.9999    0.0000 </r>
       <r>   -0.3963    0.0000 </r>
       <r>   -0.1688    0.0000 </r>
       <r>    0.1176    0.0000 </r>
       <r>    0.4229    0.0000 </r>
       <r>    0.5527    0.0000 </r>
       <r>    0.6040    0.0000 </r>
       <r>    0.7748    0.0000 </r>
       <r>    0.8699    0.0000 </r>
       <r>    0.9569    0.0000 </r>
       <r>    1.0595    0.0000 </r>
      </set>
      <set comment="kpoint 5">
       <r>  -19.6667    1.0000 </r>
       <r>  -17.9316    1.0000 </r>
       <r>  -16.0352    1.0000 </r>
       <r>  -14.0392    1.0000 </r>
       <r>  -11.2206    1.0000 </r>
       <r>  -10.8389    1.0000 </r>
       <r>  -10.2274    1.0000 </r>
       <r>   -9.5476    1.0000 </r>
       <r>   -9.3230    1.0000 </r>
       <r>   -8.9316    1.0000 </r>
       <r>   -8.0268    1.0000 </r>
       <r>   -7.7617    1.0000 </r>
       <r>   -7.2166    1.0000 </r>
       <r>   -0.9474    0.0000 </r>
       <r>   -0.3347    0.0000 </r>
       <r>   -0.2973    0.0000 </r>
       <r>    0.1645    0.0000 </r>
       <r>    0.2409    0.0000 </r>
       <r>    0.3754    0.0000 </r>
       <r>    0.6232    0.0000 </r>
       <r>    0.7815    0.0000 </r>
       <r>    0.8992    0.0000 </r>
       <r>    1.0156    0.0000 </r>
       <r>    1.1606    0.0000 </r>
      </set>
      <set comment="kpoint 6">
       <r>  -19.6667    1.0000 </r>
       <r>  -17.9316    1.0000 </r>
       <r>  -16.0354    1.0000 </r>
       <r>  -14.0391    1.0000 </r>
       <r>  -11.2219    1.0000 </r>
       <r>  -10.8389    1.0000 </r>
       <r>  -10.2267    1.0000 </r>
       <r>   -9.5477    1.0000 </r>
       <r>   -9.3211    1.0000 </r>
       <r>   -8.9307    1.0000 </r>
       <r>   -8.0295    1.0000 </r>
       <r>   -7.7614    1.0000 </r>
       <r>   -7.2156    1.0000 </r>
       <r>   -0.8195    0.0000 </r>
       <r>   -0.3254    0.0000 </r>
       <r>   -0.1797    0.0000 </r>
       <r>    0.2546    0.0000 </r>
       <r>    0.3313    0.0000 </r>
       <r>    0.3724    0.0000 </r>
       <r>    0.6873    0.0000 </r>
       <r>    0.7716    0.0000 </r>
       <r>    0.8431    0.0000 </r>
       <r>    0.9211    0.0000 </r>
       <r>    1.0876    0.0000 </r>
      </set>
      <set comment="kpoint 7">
       <r>  -19.6667    1.0000 </r>
       <r>  -17.9316    1.0000 </r>
       <r>  -16.0353    1.0000 </r>
       <r>  -14.0391    1.0000 </r>
       <r>  -11.2217    1.0000 </r>
       <r>  -10.8389    1.0000 </r>
       <r>  -10.2266    1.0000 </r>
       <r>   -9.5477    1.0000 </r>
       <r>   -9.3211    1.0000 </r>
       <r>   -8.9306    1.0000 </r>
       <r>   -8.0294    1.0000 </r>
       <r>   -7.7615    1.0000 </r>
       <r>   -7.2158    1.0000 </r>
       <r>   -0.6514    0.0000 </r>
       <r>   -0.3711    0.0000 </r>
       <r>   -0.1886    0.0000 </r>
       <r>    0.0124    0.0000 </r>
       <r>    0.2793    0.0000 </r>
       <r>    0.3978    0.0000 </r>
       <r>    0.5126    0.0000 </r>
       <r>    0.8148    0.0000 </r>
       <r>    0.8855    0.0000 </r>
       <r>    0.9408    0.0000 </r>
       <r>    1.0466    0.0000 </r>
      </set>
      <set comment="kpoint 8">
       <r>  -19.6667    1.0000 </r>
       <r>  -17.9316    1.0000 </r>
       <r>  -16.0352    1.0000 </r>
       <r>  -14.0392    1.0000 </r>
       <r>  -11.2206    1.0000 </r>
       <r>  -10.8390    1.0000 </r>
       <r>  -10.2274    1.0000 </r>
       <r>   -9.5478    1.0000 </r>
       <r>   -9.3230    1.0000 </r>
       <r>   -8.9317    1.0000 </r>
       <r>   -8.0269    1.0000 </r>
       <r>   -7.7620    1.0000 </r>
       <r>   -7.2168    1.0000 </r>
       <r>   -0.7707    0.0000 </r>
       <r>   -0.5981    0.0000 </r>
       <r>   -0.1495    0.0000 </r>
       <r>    0.0049    0.0000 </r>
       <r>    0.3408    0.0000 </r>
       <r>    0.3865    0.0000 </r>
       <r>    0.5304    0.0000 </r>
       <r>    0.8021    0.0000 </r>
       <r>    0.8880    0.0000 </r>
       <r>    0.9531    0.0000 </r>
       <r>    1.0983    0.0000 </r>
      </set>
     </set>
    </set>
   </array>
  </eigenvalues>
  <separator name="orbital magnetization" >
   <v name="MAGDIPOLOUT">      0.00000000      0.00000000      0.00000000</v>
  </separator>
  <dos>
   <i name="efermi">     -6.95730484 </i>
   <total>
    <array>
     <dimension dim="1">gridpoints</dimension>
     <dimension dim="2">spin</dimension>
     <field>energy</field>
     <field>total</field>
     <field>integrated</field>
     <set>
      <set comment="spin 1">
       <r>   -20.7081     0.0000     0.0000 </r>
       <r>   -20.6317     0.0000     0.0000 </r>
       <r>   -20.5554     0.0000     0.0000 </r>
       <r>   -20.4790     0.0000     0.0000 </r>
       <r>   -20.4026     0.0000     0.0000 </r>
       <r>   -20.3263     0.0000     0.0000 </r>
       <r>   -20.2499     0.0000     0.0000 </r>
       <r>   -20.1735     0.0000     0.0000 </r>
       <r>   -20.0972     0.0000     0.0000 </r>
       <r>   -20.0208     0.0000     0.0000 </r>
       <r>   -19.9444     0.0000     0.0000 </r>
       <r>   -19.8681     0.0000     0.0000 </r>
       <r>   -19.7917     0.0053     0.0004 </r>
       <r>   -19.7153     2.2071     0.1690 </r>
       <r>   -19.6390    18.3096     1.5672 </r>
       <r>   -19.5626     5.6250     1.9968 </r>
       <r>   -19.4862     0.0424     2.0000 </r>
       <r>   -19.4099     0.0000     2.0000 </r>
       <r>   -19.3335     0.0000     2.0000 </r>
       <r>   -19.2571     0.0000     2.0000 </r>
       <r>   -19.1808     0.0000     2.0000 </r>
       <r>   -19.1044     0.0000     2.0000 </r>
       <r>   -19.0280     0.0000     2.0000 </r>
       <r>   -18.9517     0.0000     2.0000 </r>
       <r>   -18.8753     0.0000     2.0000 </r>
       <r>   -18.7989     0.0000     2.0000 </r>
       <r>   -18.7226     0.0000     2.0000 </r>
       <r>   -18.6462     0.0000     2.0000 </r>
       <r>   -18.5698     0.0000     2.0000 </r>
       <r>   -18.4935     0.0000     2.0000 </r>
       <r>   -18.4171     0.0000     2.0000 </r>
       <r>   -18.3407     0.0000     2.0000 </r>
       <r>   -18.2644     0.0000     2.0000 </r>
       <r>   -18.1880     0.0000     2.0000 </r>
       <r>   -18.1116     0.0000     2.0000 </r>
       <r>   -18.0353     0.0440     2.0034 </r>
       <r>   -17.9589     5.7122     2.4396 </r>
       <r>   -17.8825    18.2671     3.8346 </r>
       <r>   -17.8062     2.1610     3.9996 </r>
       <r>   -17.7298     0.0051     4.0000 </r>
       <r>   -17.6534     0.0000     4.0000 </r>
       <r>   -17.5771     0.0000     4.0000 </r>
       <r>   -17.5007     0.0000     4.0000 </r>
       <r>   -17.4243     0.0000     4.0000 </r>
       <r>   -17.3480     0.0000     4.0000 </r>
       <r>   -17.2716     0.0000     4.0000 </r>
       <r>   -17.1952     0.0000     4.0000 </r>
       <r>   -17.1189     0.0000     4.0000 </r>
       <r>   -17.0425     0.0000     4.0000 </r>
       <r>   -16.9661     0.0000     4.0000 </r>
       <r>   -16.8898     0.0000     4.0000 </r>
       <r>   -16.8134     0.0000     4.0000 </r>
       <r>   -16.7370     0.0000     4.0000 </r>
       <r>   -16.6607     0.0000     4.0000 </r>
       <r>   -16.5843     0.0000     4.0000 </r>
       <r>   -16.5079     0.0000     4.0000 </r>
       <r>   -16.4316     0.0000     4.0000 </r>
       <r>   -16.3552     0.0000     4.0000 </r>
       <r>   -16.2788     0.0000     4.0000 </r>
       <r>   -16.2025     0.0000     4.0000 </r>
       <r>   -16.1261     0.1337     4.0102 </r>
       <r>   -16.0497     8.8077     4.6828 </r>
       <r>   -15.9734    16.2020     5.9201 </r>
       <r>   -15.8970     1.0448     5.9999 </r>
       <r>   -15.8206     0.0012     6.0000 </r>
       <r>   -15.7443     0.0000     6.0000 </r>
       <r>   -15.6679     0.0000     6.0000 </r>
       <r>   -15.5915     0.0000     6.0000 </r>
       <r>   -15.5152     0.0000     6.0000 </r>
       <r>   -15.4388     0.0000     6.0000 </r>
       <r>   -15.3624     0.0000     6.0000 </r>
       <r>   -15.2861     0.0000     6.0000 </r>
       <r>   -15.2097     0.0000     6.0000 </r>
       <r>   -15.1333     0.0000     6.0000 </r>
       <r>   -15.0570     0.0000     6.0000 </r>
       <r>   -14.9806     0.0000     6.0000 </r>
       <r>   -14.9042     0.0000     6.0000 </r>
       <r>   -14.8279     0.0000     6.0000 </r>
       <r>   -14.7515     0.0000     6.0000 </r>
       <r>   -14.6751     0.0000     6.0000 </r>
       <r>   -14.5988     0.0000     6.0000 </r>
       <r>   -14.5224     0.0000     6.0000 </r>
       <r>   -14.4460     0.0000     6.0000 </r>
       <r>   -14.3697     0.0000     6.0000 </r>
       <r>   -14.2933     0.0000     6.0000 </r>
       <r>   -14.2169     0.0000     6.0000 </r>
       <r>   -14.1406     0.0541     6.0041 </r>
       <r>   -14.0642     6.2166     6.4789 </r>
       <r>   -13.9878    17.9998     7.8535 </r>
       <r>   -13.9115     1.9149     7.9997 </r>
       <r>   -13.8351     0.0040     8.0000 </r>
       <r>   -13.7587     0.0000     8.0000 </r>
       <r>   -13.6824     0.0000     8.0000 </r>
       <r>   -13.6060     0.0000     8.0000 </r>
       <r>   -13.5296     0.0000     8.0000 </r>
       <r>   -13.4533     0.0000     8.0000 </r>
       <r>   -13.3769     0.0000     8.0000 </r>
       <r>   -13.3005     0.0000     8.0000 </r>
       <r>   -13.2242     0.0000     8.0000 </r>
       <r>   -13.1478     0.0000     8.0000 </r>
       <r>   -13.0714     0.0000     8.0000 </r>
       <r>   -12.9951     0.0000     8.0000 </r>
       <r>   -12.9187     0.0000     8.0000 </r>
       <r>   -12.8423     0.0000     8.0000 </r>
       <r>   -12.7660     0.0000     8.0000 </r>
       <r>   -12.6896     0.0000     8.0000 </r>
       <r>   -12.6132     0.0000     8.0000 </r>
       <r>   -12.5369     0.0000     8.0000 </r>
       <r>   -12.4605     0.0000     8.0000 </r>
       <r>   -12.3841     0.0000     8.0000 </r>
       <r>   -12.3078     0.0000     8.0000 </r>
       <r>   -12.2314     0.0000     8.0000 </r>
       <r>   -12.1550     0.0000     8.0000 </r>
       <r>   -12.0787     0.0000     8.0000 </r>
       <r>   -12.0023     0.0000     8.0000 </r>
       <r>   -11.9259     0.0000     8.0000 </r>
       <r>   -11.8496     0.0000     8.0000 </r>
       <r>   -11.7732     0.0000     8.0000 </r>
       <r>   -11.6968     0.0000     8.0000 </r>
       <r>   -11.6205     0.0000     8.0000 </r>
       <r>   -11.5441     0.0000     8.0000 </r>
       <r>   -11.4677     0.0000     8.0000 </r>
       <r>   -11.3914     0.0000     8.0000 </r>
       <r>   -11.3150     0.1045     8.0080 </r>
       <r>   -11.2386     8.0408     8.6220 </r>
       <r>   -11.1623    16.7927     9.9044 </r>
       <r>   -11.0859     1.2497     9.9999 </r>
       <r>   -11.0095     0.0017    10.0000 </r>
       <r>   -10.9332     0.1008    10.0077 </r>
       <r>   -10.8568     7.9344    10.6136 </r>
       <r>   -10.7804    16.8720    11.9021 </r>
       <r>   -10.7041     1.2803    11.9999 </r>
       <r>   -10.6277     0.0018    12.0000 </r>
       <r>   -10.5513     0.0000    12.0000 </r>
       <r>   -10.4750     0.0000    12.0000 </r>
       <r>   -10.3986     0.0000    12.0000 </r>
       <r>   -10.3222     0.0927    12.0071 </r>
       <r>   -10.2459     7.6852    12.5940 </r>
       <r>   -10.1695    17.0523    13.8962 </r>
       <r>   -10.0931     1.3571    13.9998 </r>
       <r>   -10.0168     0.0020    14.0000 </r>
       <r>    -9.9404     0.0000    14.0000 </r>
       <r>    -9.8640     0.0000    14.0000 </r>
       <r>    -9.7877     0.0000    14.0000 </r>
       <r>    -9.7113     0.0000    14.0000 </r>
       <r>    -9.6349     0.1780    14.0136 </r>
       <r>    -9.5586     9.7515    14.7583 </r>
       <r>    -9.4822    15.4219    15.9360 </r>
       <r>    -9.4058     1.0711    16.0178 </r>
       <r>    -9.3295    10.6935    16.8344 </r>
       <r>    -9.2531    14.5928    17.9488 </r>
       <r>    -9.1767     0.6693    18.0000 </r>
       <r>    -9.1003     0.0005    18.0000 </r>
       <r>    -9.0240     0.1132    18.0086 </r>
       <r>    -8.9476     8.2836    18.6412 </r>
       <r>    -8.8712    16.6101    19.9097 </r>
       <r>    -8.7949     1.1810    19.9999 </r>
       <r>    -8.7185     0.0015    20.0000 </r>
       <r>    -8.6421     0.0000    20.0000 </r>
       <r>    -8.5658     0.0000    20.0000 </r>
       <r>    -8.4894     0.0000    20.0000 </r>
       <r>    -8.4130     0.0000    20.0000 </r>
       <r>    -8.3367     0.0000    20.0000 </r>
       <r>    -8.2603     0.0000    20.0000 </r>
       <r>    -8.1839     0.0001    20.0000 </r>
       <r>    -8.1076     0.3230    20.0247 </r>
       <r>    -8.0312    11.8554    20.9300 </r>
       <r>    -7.9548    13.5083    21.9616 </r>
       <r>    -7.8785     0.5147    22.0009 </r>
       <r>    -7.8021     3.2886    22.2521 </r>
       <r>    -7.7257    18.8255    23.6897 </r>
       <r>    -7.6494     4.0436    23.9985 </r>
       <r>    -7.5730     0.0196    24.0000 </r>
       <r>    -7.4966     0.0000    24.0000 </r>
       <r>    -7.4203     0.0000    24.0000 </r>
       <r>    -7.3439     0.0040    24.0003 </r>
       <r>    -7.2675     1.9094    24.1461 </r>
       <r>    -7.1912    17.9918    25.5201 </r>
       <r>    -7.1148     6.2298    25.9958 </r>
       <r>    -7.0384     0.0544    26.0000 </r>
       <r>    -6.9621     0.0000    26.0000 </r>
       <r>    -6.8857     0.0000    26.0000 </r>
       <r>    -6.8093     0.0000    26.0000 </r>
       <r>    -6.7330     0.0000    26.0000 </r>
       <r>    -6.6566     0.0000    26.0000 </r>
       <r>    -6.5802     0.0000    26.0000 </r>
       <r>    -6.5039     0.0000    26.0000 </r>
       <r>    -6.4275     0.0000    26.0000 </r>
       <r>    -6.3511     0.0000    26.0000 </r>
       <r>    -6.2748     0.0000    26.0000 </r>
       <r>    -6.1984     0.0000    26.0000 </r>
       <r>    -6.1220     0.0000    26.0000 </r>
       <r>    -6.0457     0.0000    26.0000 </r>
       <r>    -5.9693     0.0000    26.0000 </r>
       <r>    -5.8929     0.0000    26.0000 </r>
       <r>    -5.8166     0.0000    26.0000 </r>
       <r>    -5.7402     0.0000    26.0000 </r>
       <r>    -5.6638     0.0000    26.0000 </r>
       <r>    -5.5875     0.0000    26.0000 </r>
       <r>    -5.5111     0.0000    26.0000 </r>
       <r>    -5.4347     0.0000    26.0000 </r>
       <r>    -5.3584     0.0000    26.0000 </r>
       <r>    -5.2820     0.0000    26.0000 </r>
       <r>    -5.2056     0.0000    26.0000 </r>
       <r>    -5.1293     0.0000    26.0000 </r>
       <r>    -5.0529     0.0000    26.0000 </r>
       <r>    -4.9765     0.0000    26.0000 </r>
       <r>    -4.9002     0.0000    26.0000 </r>
       <r>    -4.8238     0.0000    26.0000 </r>
       <r>    -4.7474     0.0000    26.0000 </r>
       <r>    -4.6711     0.0000    26.0000 </r>
       <r>    -4.5947     0.0000    26.0000 </r>
       <r>    -4.5183     0.0000    26.0000 </r>
       <r>    -4.4420     0.0000    26.0000 </r>
       <r>    -4.3656     0.0000    26.0000 </r>
       <r>    -4.2892     0.0000    26.0000 </r>
       <r>    -4.2129     0.0000    26.0000 </r>
       <r>    -4.1365     0.0000    26.0000 </r>
       <r>    -4.0601     0.0000    26.0000 </r>
       <r>    -3.9838     0.0000    26.0000 </r>
       <r>    -3.9074     0.0000    26.0000 </r>
       <r>    -3.8310     0.0000    26.0000 </r>
       <r>    -3.7547     0.0000    26.0000 </r>
       <r>    -3.6783     0.0000    26.0000 </r>
       <r>    -3.6019     0.0000    26.0000 </r>
       <r>    -3.5256     0.0000    26.0000 </r>
       <r>    -3.4492     0.0000    26.0000 </r>
       <r>    -3.3728     0.0000    26.0000 </r>
       <r>    -3.2965     0.0000    26.0000 </r>
       <r>    -3.2201     0.0000    26.0000 </r>
       <r>    -3.1437     0.0000    26.0000 </r>
       <r>    -3.0674     0.0000    26.0000 </r>
       <r>    -2.9910     0.0000    26.0000 </r>
       <r>    -2.9146     0.0000    26.0000 </r>
       <r>    -2.8383     0.0000    26.0000 </r>
       <r>    -2.7619     0.0000    26.0000 </r>
       <r>    -2.6855     0.0000    26.0000 </r>
       <r>    -2.6092     0.0000    26.0000 </r>
       <r>    -2.5328     0.0000    26.0000 </r>
       <r>    -2.4564     0.0000    26.0000 </r>
       <r>    -2.3801     0.0000    26.0000 </r>
       <r>    -2.3037     0.0000    26.0000 </r>
       <r>    -2.2273     0.0000    26.0000 </r>
       <r>    -2.1510     0.0000    26.0000 </r>
       <r>    -2.0746     0.0000    26.0000 </r>
       <r>    -1.9982     0.0000    26.0000 </r>
       <r>    -1.9219     0.0000    26.0000 </r>
       <r>    -1.8455     0.0000    26.0000 </r>
       <r>    -1.7691     0.0000    26.0000 </r>
       <r>    -1.6928     0.0000    26.0000 </r>
       <r>    -1.6164     0.0000    26.0000 </r>
       <r>    -1.5400     0.0000    26.0000 </r>
       <r>    -1.4637     0.0000    26.0000 </r>
       <r>    -1.3873     0.0000    26.0000 </r>
       <r>    -1.3109     0.0000    26.0000 </r>
       <r>    -1.2346     0.0000    26.0000 </r>
       <r>    -1.1582     0.0183    26.0014 </r>
       <r>    -1.0818     1.1715    26.0909 </r>
       <r>    -1.0055     3.5596    26.3627 </r>
       <r>    -0.9291     4.0128    26.6691 </r>
       <r>    -0.8527     1.9555    26.8185 </r>
       <r>    -0.7764     6.0606    27.2813 </r>
       <r>    -0.7000     3.1007    27.5181 </r>
       <r>    -0.6236     4.5270    27.8638 </r>
       <r>    -0.5473     4.7502    28.2266 </r>
       <r>    -0.4709     1.5475    28.3447 </r>
       <r>    -0.3945     4.6885    28.7028 </r>
       <r>    -0.3182     8.9345    29.3851 </r>
       <r>    -0.2418     9.4668    30.1080 </r>
       <r>    -0.1654    12.4513    31.0589 </r>
       <r>    -0.0891     8.1102    31.6782 </r>
       <r>    -0.0127     3.7326    31.9633 </r>
       <r>     0.0637     9.2408    32.6690 </r>
       <r>     0.1400     6.0918    33.1342 </r>
       <r>     0.2164     8.0383    33.7481 </r>
       <r>     0.2928    11.0883    34.5948 </r>
       <r>     0.3691    19.4531    36.0804 </r>
       <r>     0.4455    17.8125    37.4407 </r>
       <r>     0.5219    11.8030    38.3420 </r>
       <r>     0.5982    14.7256    39.4666 </r>
       <r>     0.6746     8.2288    40.0950 </r>
       <r>     0.7510     8.0596    40.7105 </r>
       <r>     0.8273    18.1727    42.0983 </r>
       <r>     0.9037    20.4862    43.6627 </r>
       <r>     0.9801    21.6994    45.3199 </r>
       <r>     1.0564    15.5964    46.5109 </r>
       <r>     1.1328    13.5566    47.5462 </r>
       <r>     1.2092     5.5835    47.9726 </r>
       <r>     1.2855     0.3584    47.9999 </r>
       <r>     1.3619     0.0007    48.0000 </r>
       <r>     1.4383     0.0000    48.0000 </r>
       <r>     1.5146     0.0000    48.0000 </r>
       <r>     1.5910     0.0000    48.0000 </r>
       <r>     1.6674     0.0000    48.0000 </r>
       <r>     1.7437     0.0000    48.0000 </r>
       <r>     1.8201     0.0000    48.0000 </r>
       <r>     1.8965     0.0000    48.0000 </r>
       <r>     1.9728     0.0000    48.0000 </r>
       <r>     2.0492     0.0000    48.0000 </r>
       <r>     2.1256     0.0000    48.0000 </r>
       <r>     2.2019     0.0000    48.0000 </r>
      </set>
     </set>
    </array>
   </total>
  </dos>
 </calculation>
 <structure name="finalpos" >
  <crystal>
   <varray name="basis" >
    <v>       8.31557575       0.00000000       0.00000000 </v>
    <v>       5.54371716       9.60199979       0.00000000 </v>
    <v>       0.00000000       0.00000000      26.78963917 </v>
   </varray>
   <i name="volume">   2139.04972377 </i>
   <varray name="rec_basis" >
    <v>       0.12025626      -0.06942998       0.00000000 </v>
    <v>       0.00000000       0.10414497       0.00000000 </v>
    <v>       0.00000000       0.00000000       0.03732786 </v>
   </varray>
  </crystal>
  <varray name="positions" >
   <v>       0.52035675       0.39020101       0.38216640 </v>
   <v>       0.31179895       0.65314519       0.35370204 </v>
   <v>       0.32609565       0.51439076       0.36967239 </v>
   <v>       0.61324206       0.38629661       0.43268593 </v>
   <v>       0.30969458       0.47175589       0.33360733 </v>
   <v>       0.61169442       0.38337431       0.35174793 </v>
   <v>       0.50123358       0.29958134       0.38021789 </v>
   <v>       0.26272153       0.68007604       0.31539283 </v>
   <v>       0.20633100       0.51525517       0.38701156 </v>
   <v>       0.44699592       0.64697773       0.35610035 </v>
   <v>       0.65586120       0.29112894       0.45403374 </v>
   <v>       0.21697089       0.73929495       0.37769452 </v>
   <v>       0.73538891       0.39853365       0.42808714 </v>
   <v>       0.51907580       0.47231411       0.45682586 </v>
  </varray>
 </structure>
</modeling>
