  14  14   0   0
  0.1527893E+03  0.8315576E-09  0.1108743E-08  0.2678964E-08  0.5000000E-15
  1.000000000000000E-004
  CAR 
 unknown system                          
      2.26166291    -21.02359115  301     -7.58605912      1.00000000
    -21.024  0.0000E+00  0.0000E+00
    -20.946  0.0000E+00  0.0000E+00
    -20.868  0.0000E+00  0.0000E+00
    -20.791  0.0000E+00  0.0000E+00
    -20.713  0.0000E+00  0.0000E+00
    -20.636  0.0000E+00  0.0000E+00
    -20.558  0.0000E+00  0.0000E+00
    -20.480  0.0000E+00  0.0000E+00
    -20.403  0.0000E+00  0.0000E+00
    -20.325  0.0000E+00  0.0000E+00
    -20.247  0.1859E-13  0.1443E-14
    -20.170  0.9149E-07  0.7101E-08
    -20.092  0.4209E-02  0.3267E-03
    -20.015  0.2085E+01  0.1622E+00
    -19.937  0.1820E+02  0.1575E+01
    -19.859  0.5442E+01  0.1997E+01
    -19.782  0.3560E-01  0.2000E+01
    -19.704  0.2735E-05  0.2000E+01
    -19.626  0.1985E-11  0.2000E+01
    -19.549  0.0000E+00  0.2000E+01
    -19.471  0.0000E+00  0.2000E+01
    -19.394  0.0000E+00  0.2000E+01
    -19.316  0.0000E+00  0.2000E+01
    -19.238  0.0000E+00  0.2000E+01
    -19.161  0.0000E+00  0.2000E+01
    -19.083  0.0000E+00  0.2000E+01
    -19.006  0.0000E+00  0.2000E+01
    -18.928  0.0000E+00  0.2000E+01
    -18.850  0.0000E+00  0.2000E+01
    -18.773  0.0000E+00  0.2000E+01
    -18.695  0.0000E+00  0.2000E+01
    -18.617  0.0000E+00  0.2000E+01
    -18.540  0.0000E+00  0.2000E+01
    -18.462  0.0000E+00  0.2000E+01
    -18.385  0.0000E+00  0.2000E+01
    -18.307  0.0000E+00  0.2000E+01
    -18.229  0.0000E+00  0.2000E+01
    -18.152  0.0000E+00  0.2000E+01
    -18.074  0.0000E+00  0.2000E+01
    -17.997  0.0000E+00  0.2000E+01
    -17.919  0.0000E+00  0.2000E+01
    -17.841  0.0000E+00  0.2000E+01
    -17.764  0.0000E+00  0.2000E+01
    -17.686  0.0000E+00  0.2000E+01
    -17.608  0.0000E+00  0.2000E+01
    -17.531  0.0000E+00  0.2000E+01
    -17.453  0.0000E+00  0.2000E+01
    -17.376  0.0000E+00  0.2000E+01
    -17.298  0.0000E+00  0.2000E+01
    -17.220  0.3142E-11  0.2000E+01
    -17.143  0.3807E-05  0.2000E+01
    -17.065  0.4463E-01  0.2003E+01
    -16.987  0.7012E+01  0.2548E+01
    -16.910  0.3448E+02  0.5224E+01
    -16.832  0.9901E+01  0.5992E+01
    -16.755  0.9966E-01  0.6000E+01
    -16.677  0.1443E-04  0.6000E+01
    -16.599  0.2064E-10  0.6000E+01
    -16.522  0.0000E+00  0.6000E+01
    -16.444  0.0000E+00  0.6000E+01
    -16.367  0.0000E+00  0.6000E+01
    -16.289  0.0000E+00  0.6000E+01
    -16.211  0.0000E+00  0.6000E+01
    -16.134  0.0000E+00  0.6000E+01
    -16.056  0.0000E+00  0.6000E+01
    -15.978  0.0000E+00  0.6000E+01
    -15.901  0.0000E+00  0.6000E+01
    -15.823  0.0000E+00  0.6000E+01
    -15.746  0.0000E+00  0.6000E+01
    -15.668  0.0000E+00  0.6000E+01
    -15.590  0.0000E+00  0.6000E+01
    -15.513  0.0000E+00  0.6000E+01
    -15.435  0.0000E+00  0.6000E+01
    -15.358  0.0000E+00  0.6000E+01
    -15.280  0.0000E+00  0.6000E+01
    -15.202  0.0000E+00  0.6000E+01
    -15.125  0.0000E+00  0.6000E+01
    -15.047  0.0000E+00  0.6000E+01
    -14.969  0.0000E+00  0.6000E+01
    -14.892  0.0000E+00  0.6000E+01
    -14.814  0.0000E+00  0.6000E+01
    -14.737  0.0000E+00  0.6000E+01
    -14.659  0.0000E+00  0.6000E+01
    -14.581  0.0000E+00  0.6000E+01
    -14.504  0.0000E+00  0.6000E+01
    -14.426  0.0000E+00  0.6000E+01
    -14.348  0.0000E+00  0.6000E+01
    -14.271  0.0000E+00  0.6000E+01
    -14.193  0.0000E+00  0.6000E+01
    -14.116  0.2933E-10  0.6000E+01
    -14.038  0.1840E-04  0.6000E+01
    -13.960  0.1114E+00  0.6009E+01
    -13.883  0.8481E+01  0.6667E+01
    -13.805  0.1618E+02  0.7922E+01
    -13.728  0.9983E+00  0.8000E+01
    -13.650  0.9642E-03  0.8000E+01
    -13.572  0.9630E-08  0.8000E+01
    -13.495  0.0000E+00  0.8000E+01
    -13.417  0.0000E+00  0.8000E+01
    -13.339  0.0000E+00  0.8000E+01
    -13.262  0.0000E+00  0.8000E+01
    -13.184  0.0000E+00  0.8000E+01
    -13.107  0.0000E+00  0.8000E+01
    -13.029  0.0000E+00  0.8000E+01
    -12.951  0.0000E+00  0.8000E+01
    -12.874  0.0000E+00  0.8000E+01
    -12.796  0.0000E+00  0.8000E+01
    -12.719  0.0000E+00  0.8000E+01
    -12.641  0.0000E+00  0.8000E+01
    -12.563  0.0000E+00  0.8000E+01
    -12.486  0.0000E+00  0.8000E+01
    -12.408  0.0000E+00  0.8000E+01
    -12.330  0.0000E+00  0.8000E+01
    -12.253  0.0000E+00  0.8000E+01
    -12.175  0.0000E+00  0.8000E+01
    -12.098  0.0000E+00  0.8000E+01
    -12.020  0.0000E+00  0.8000E+01
    -11.942  0.0000E+00  0.8000E+01
    -11.865  0.0000E+00  0.8000E+01
    -11.787  0.0000E+00  0.8000E+01
    -11.709  0.0000E+00  0.8000E+01
    -11.632  0.3540E-13  0.8000E+01
    -11.554  0.1482E-06  0.8000E+01
    -11.477  0.5738E-02  0.8000E+01
    -11.399  0.2417E+01  0.8188E+01
    -11.321  0.1846E+02  0.9621E+01
    -11.244  0.4861E+01  0.9998E+01
    -11.166  0.2719E-01  0.1000E+02
    -11.089  0.1762E-05  0.1000E+02
    -11.011  0.1075E-11  0.1000E+02
    -10.933  0.0000E+00  0.1000E+02
    -10.856  0.4470E-13  0.1000E+02
    -10.778  0.1761E-06  0.1000E+02
    -10.700  0.6415E-02  0.1000E+02
    -10.623  0.2610E+01  0.1020E+02
    -10.545  0.2541E+02  0.1218E+02
    -10.468  0.2202E+02  0.1388E+02
    -10.390  0.1491E+01  0.1400E+02
    -10.312  0.2057E-02  0.1400E+02
    -10.235  0.3036E-07  0.1400E+02
    -10.157  0.5722E-14  0.1400E+02
    -10.080  0.0000E+00  0.1400E+02
    -10.002  0.0000E+00  0.1400E+02
     -9.924  0.0000E+00  0.1400E+02
     -9.847  0.0000E+00  0.1400E+02
     -9.769  0.3934E-13  0.1400E+02
     -9.691  0.1602E-06  0.1400E+02
     -9.614  0.6030E-02  0.1400E+02
     -9.536  0.2475E+01  0.1419E+02
     -9.459  0.1849E+02  0.1563E+02
     -9.381  0.5846E+01  0.1608E+02
     -9.303  0.1645E+02  0.1736E+02
     -9.226  0.8171E+01  0.1799E+02
     -9.148  0.1006E+00  0.1800E+02
     -9.070  0.1546E-04  0.1800E+02
     -8.993  0.1114E-03  0.1800E+02
     -8.915  0.3123E+00  0.1802E+02
     -8.838  0.1198E+02  0.1895E+02
     -8.760  0.1306E+02  0.1997E+02
     -8.682  0.4193E+00  0.2000E+02
     -8.605  0.1896E-03  0.2000E+02
     -8.527  0.8575E-09  0.2000E+02
     -8.450  0.0000E+00  0.2000E+02
     -8.372  0.0000E+00  0.2000E+02
     -8.294  0.0000E+00  0.2000E+02
     -8.217  0.2844E-09  0.2000E+02
     -8.139  0.9658E-04  0.2000E+02
     -8.061  0.3497E+00  0.2003E+02
     -7.984  0.1893E+02  0.2150E+02
     -7.906  0.3067E+02  0.2388E+02
     -7.829  0.1146E+02  0.2477E+02
     -7.751  0.1515E+02  0.2594E+02
     -7.673  0.7450E+00  0.2600E+02
     -7.596  0.5543E-03  0.2600E+02
     -7.518  0.4236E-08  0.2600E+02
     -7.441  0.0000E+00  0.2600E+02
     -7.363  0.0000E+00  0.2600E+02
     -7.285  0.0000E+00  0.2600E+02
     -7.208  0.0000E+00  0.2600E+02
     -7.130  0.0000E+00  0.2600E+02
     -7.052  0.0000E+00  0.2600E+02
     -6.975  0.0000E+00  0.2600E+02
     -6.897  0.0000E+00  0.2600E+02
     -6.820  0.0000E+00  0.2600E+02
     -6.742  0.0000E+00  0.2600E+02
     -6.664  0.0000E+00  0.2600E+02
     -6.587  0.0000E+00  0.2600E+02
     -6.509  0.0000E+00  0.2600E+02
     -6.431  0.0000E+00  0.2600E+02
     -6.354  0.0000E+00  0.2600E+02
     -6.276  0.0000E+00  0.2600E+02
     -6.199  0.0000E+00  0.2600E+02
     -6.121  0.0000E+00  0.2600E+02
     -6.043  0.0000E+00  0.2600E+02
     -5.966  0.0000E+00  0.2600E+02
     -5.888  0.0000E+00  0.2600E+02
     -5.811  0.0000E+00  0.2600E+02
     -5.733  0.0000E+00  0.2600E+02
     -5.655  0.0000E+00  0.2600E+02
     -5.578  0.0000E+00  0.2600E+02
     -5.500  0.0000E+00  0.2600E+02
     -5.422  0.0000E+00  0.2600E+02
     -5.345  0.0000E+00  0.2600E+02
     -5.267  0.0000E+00  0.2600E+02
     -5.190  0.0000E+00  0.2600E+02
     -5.112  0.0000E+00  0.2600E+02
     -5.034  0.0000E+00  0.2600E+02
     -4.957  0.0000E+00  0.2600E+02
     -4.879  0.0000E+00  0.2600E+02
     -4.802  0.0000E+00  0.2600E+02
     -4.724  0.0000E+00  0.2600E+02
     -4.646  0.0000E+00  0.2600E+02
     -4.569  0.0000E+00  0.2600E+02
     -4.491  0.0000E+00  0.2600E+02
     -4.413  0.0000E+00  0.2600E+02
     -4.336  0.0000E+00  0.2600E+02
     -4.258  0.0000E+00  0.2600E+02
     -4.181  0.0000E+00  0.2600E+02
     -4.103  0.0000E+00  0.2600E+02
     -4.025  0.0000E+00  0.2600E+02
     -3.948  0.0000E+00  0.2600E+02
     -3.870  0.0000E+00  0.2600E+02
     -3.793  0.0000E+00  0.2600E+02
     -3.715  0.0000E+00  0.2600E+02
     -3.637  0.0000E+00  0.2600E+02
     -3.560  0.0000E+00  0.2600E+02
     -3.482  0.0000E+00  0.2600E+02
     -3.404  0.0000E+00  0.2600E+02
     -3.327  0.0000E+00  0.2600E+02
     -3.249  0.0000E+00  0.2600E+02
     -3.172  0.0000E+00  0.2600E+02
     -3.094  0.0000E+00  0.2600E+02
     -3.016  0.0000E+00  0.2600E+02
     -2.939  0.0000E+00  0.2600E+02
     -2.861  0.0000E+00  0.2600E+02
     -2.783  0.0000E+00  0.2600E+02
     -2.706  0.0000E+00  0.2600E+02
     -2.628  0.0000E+00  0.2600E+02
     -2.551  0.0000E+00  0.2600E+02
     -2.473  0.0000E+00  0.2600E+02
     -2.395  0.0000E+00  0.2600E+02
     -2.318  0.0000E+00  0.2600E+02
     -2.240  0.0000E+00  0.2600E+02
     -2.163  0.0000E+00  0.2600E+02
     -2.085  0.0000E+00  0.2600E+02
     -2.007  0.0000E+00  0.2600E+02
     -1.930  0.0000E+00  0.2600E+02
     -1.852  0.0000E+00  0.2600E+02
     -1.774  0.0000E+00  0.2600E+02
     -1.697  0.0000E+00  0.2600E+02
     -1.619  0.0000E+00  0.2600E+02
     -1.542  0.0000E+00  0.2600E+02
     -1.464  0.0000E+00  0.2600E+02
     -1.386  0.0000E+00  0.2600E+02
     -1.309  0.1123E-12  0.2600E+02
     -1.231  0.1938E-06  0.2600E+02
     -1.154  0.3142E-02  0.2600E+02
     -1.076  0.5943E+00  0.2605E+02
     -0.998  0.3131E+01  0.2629E+02
     -0.921  0.3707E+01  0.2658E+02
     -0.843  0.2328E+01  0.2676E+02
     -0.765  0.4293E+01  0.2709E+02
     -0.688  0.4716E+01  0.2746E+02
     -0.610  0.2357E+01  0.2764E+02
     -0.533  0.6605E+01  0.2815E+02
     -0.455  0.2203E+01  0.2832E+02
     -0.377  0.3742E+01  0.2861E+02
     -0.300  0.5449E+01  0.2904E+02
     -0.222  0.9308E+01  0.2976E+02
     -0.144  0.1221E+02  0.3071E+02
     -0.067  0.9500E+01  0.3144E+02
      0.011  0.7749E+01  0.3205E+02
      0.088  0.8881E+01  0.3274E+02
      0.166  0.5653E+01  0.3317E+02
      0.244  0.5334E+01  0.3359E+02
      0.321  0.1211E+02  0.3453E+02
      0.399  0.1846E+02  0.3596E+02
      0.476  0.1921E+02  0.3745E+02
      0.554  0.1437E+02  0.3857E+02
      0.632  0.1337E+02  0.3961E+02
      0.709  0.9653E+01  0.4035E+02
      0.787  0.5764E+01  0.4080E+02
      0.865  0.1815E+02  0.4221E+02
      0.942  0.2007E+02  0.4377E+02
      1.020  0.1753E+02  0.4513E+02
      1.097  0.1346E+02  0.4617E+02
      1.175  0.1673E+02  0.4747E+02
      1.253  0.6408E+01  0.4797E+02
      1.330  0.3876E+00  0.4800E+02
      1.408  0.6274E-03  0.4800E+02
      1.485  0.1237E-07  0.4800E+02
      1.563  0.2146E-14  0.4800E+02
      1.641  0.0000E+00  0.4800E+02
      1.718  0.0000E+00  0.4800E+02
      1.796  0.0000E+00  0.4800E+02
      1.874  0.0000E+00  0.4800E+02
      1.951  0.0000E+00  0.4800E+02
      2.029  0.0000E+00  0.4800E+02
      2.106  0.0000E+00  0.4800E+02
      2.184  0.0000E+00  0.4800E+02
      2.262  0.0000E+00  0.4800E+02
