       N       E                     dE             d eps       ncg     rms          rms(c)
DAV:   1    -0.866658901581E+02   -0.86666E+02   -0.33257E+01   584   0.210E+01    0.138E+01
DAV:   2    -0.800596828228E+02    0.66062E+01   -0.11639E+01   496   0.128E+01    0.688E+00
DAV:   3    -0.781897972190E+02    0.18699E+01   -0.50364E+00   488   0.878E+00    0.285E+00
DAV:   4    -0.778827263162E+02    0.30707E+00   -0.55877E-01   496   0.335E+00    0.604E-01
DAV:   5    -0.778479925638E+02    0.34734E-01   -0.13368E-01   504   0.145E+00    0.312E-01
DAV:   6    -0.778331602907E+02    0.14832E-01   -0.21585E-02   504   0.830E-01    0.201E-01
DAV:   7    -0.778243218734E+02    0.88384E-02   -0.38514E-03   432   0.348E-01    0.120E-01
DAV:   8    -0.778132452149E+02    0.11077E-01   -0.15722E-02   456   0.557E-01    0.738E-02
DAV:   9    -0.778131549914E+02    0.90223E-04   -0.84449E-04   456   0.174E-01
   1 F= -.77813155E+02 E0= -.77813155E+02  d E =-.128512E-10
