 vasp.5.4.4.18Apr17-6-g9f103f2a35 (build Dec 31 2018 11:41:54) complex          
  
 executed on             LinuxIFC date 2022.11.04  14:36:30
 running on   16 total cores
 distrk:  each k-point on   16 cores,    1 groups
 distr:  one band on NCORES_PER_BAND=   2 cores,    8 groups


--------------------------------------------------------------------------------------------------------


 INCAR:
 POTCAR:   PAW_PBE C 08Apr2002                    
 POTCAR:   PAW_PBE H 15Jun2001                    

 ----------------------------------------------------------------------------- 
|                                                                             |
|  ADVICE TO THIS USER RUNNING 'VASP/VAMP'   (HEAR YOUR MASTER'S VOICE ...):  |
|                                                                             |
|      You have switched on vdW-DFT.                                          |
|      This routine was written and supplied by Jiri Klimes.                  |
|      We recommed that you carefully read and cite the following             |
|      publication                                                            |
|      J. Klimes, D.R. Bowler, A. Michelides                                  |
|        J. Phys.: Cond Matt. 22 022201 (2010)                                |
|      J. Klimes, D.R. Bowler, A. Michelides                                  |
|        Phys. Rev. B. 83, 195131 (2011)                                      |
|      and references therein.                                                |
|                                                                             |
 ----------------------------------------------------------------------------- 

 POTCAR:   PAW_PBE C 08Apr2002                    
   VRHFIN =C: s2p2                                                              
   LEXCH  = PE                                                                  
   EATOM  =   147.1560 eV,   10.8157 Ry                                         
                                                                                
   TITEL  = PAW_PBE C 08Apr2002                                                 
   LULTRA =        F    use ultrasoft PP ?                                      
   IUNSCR =        0    unscreen: 0-lin 1-nonlin 2-no                           
   RPACOR =     .000    partial core radius                                     
   POMASS =   12.011; ZVAL   =    4.000    mass and valenz                      
   RCORE  =    1.500    outmost cutoff radius                                   
   RWIGS  =    1.630; RWIGS  =     .863    wigner-seitz radius (au A)           
   ENMAX  =  400.000; ENMIN  =  300.000 eV                                      
   ICORE  =        2    local potential                                         
   LCOR   =        T    correct aug charges                                     
   LPAW   =        T    paw PP                                                  
   EAUG   =  644.873                                                            
   DEXC   =     .000                                                            
   RMAX   =    2.266    core radius for proj-oper                               
   RAUG   =    1.300    factor for augmentation sphere                          
   RDEP   =    1.501    radius for radial grids                                 
   RDEPT  =    1.300    core radius for aug-charge                              
   QCUT   =   -5.516; QGAM   =   11.032    optimization parameters              
                                                                                
   Description                                                                  
     l     E      TYP  RCUT    TYP  RCUT                                        
     0   .000     23  1.200                                                     
     0   .000     23  1.200                                                     
     1   .000     23  1.500                                                     
     1  2.500     23  1.500                                                     
     2   .000      7  1.500                                                     
  local pseudopotential read in
  atomic valenz-charges read in
  non local Contribution for L=           0  read in
    real space projection operators read in
  non local Contribution for L=           0  read in
    real space projection operators read in
  non local Contribution for L=           1  read in
    real space projection operators read in
  non local Contribution for L=           1  read in
    real space projection operators read in
    PAW grid and wavefunctions read in
 
   number of l-projection  operators is LMAX  =           4
   number of lm-projection operators is LMMAX =           8
 
 POTCAR:   PAW_PBE H 15Jun2001                    
   VRHFIN =H: ultrasoft test                                                    
   LEXCH  = PE                                                                  
   EATOM  =    12.4884 eV,     .9179 Ry                                         
                                                                                
   TITEL  = PAW_PBE H 15Jun2001                                                 
   LULTRA =        F    use ultrasoft PP ?                                      
   IUNSCR =        0    unscreen: 0-lin 1-nonlin 2-no                           
   RPACOR =     .000    partial core radius                                     
   POMASS =    1.000; ZVAL   =    1.000    mass and valenz                      
   RCORE  =    1.100    outmost cutoff radius                                   
   RWIGS  =     .700; RWIGS  =     .370    wigner-seitz radius (au A)           
   ENMAX  =  250.000; ENMIN  =  200.000 eV                                      
   RCLOC  =     .701    cutoff for local pot                                    
   LCOR   =        T    correct aug charges                                     
   LPAW   =        T    paw PP                                                  
   EAUG   =  400.000                                                            
   RMAX   =    2.174    core radius for proj-oper                               
   RAUG   =    1.200    factor for augmentation sphere                          
   RDEP   =    1.112    radius for radial grids                                 
   QCUT   =   -5.749; QGAM   =   11.498    optimization parameters              
                                                                                
   Description                                                                  
     l     E      TYP  RCUT    TYP  RCUT                                        
     0   .000     23  1.100                                                     
     0   .500     23  1.100                                                     
     1  -.300     23  1.100                                                     
  local pseudopotential read in
  atomic valenz-charges read in
  non local Contribution for L=           0  read in
    real space projection operators read in
  non local Contribution for L=           0  read in
    real space projection operators read in
  non local Contribution for L=           1  read in
    real space projection operators read in
    PAW grid and wavefunctions read in
 
   number of l-projection  operators is LMAX  =           3
   number of lm-projection operators is LMMAX =           5
 
 Optimization of the real space projectors (new method)

 maximal supplied QI-value         = 25.13
 optimisation between [QCUT,QGAM] = [ 10.05, 20.36] = [ 28.30,116.06] Ry 
 Optimized for a Real-space Cutoff    1.38 Angstroem

   l    n(q)    QCUT    max X(q) W(low)/X(q) W(high)/X(q)  e(spline) 
   0      8    10.053     5.582    0.33E-04    0.15E-04    0.75E-07
   0      8    10.053    69.432    0.23E-03    0.38E-03    0.25E-06
   1      8    10.053     2.780    0.76E-04    0.11E-03    0.15E-06
   1      8    10.053     4.549    0.19E-03    0.19E-03    0.27E-06
 Optimization of the real space projectors (new method)

 maximal supplied QI-value         = 34.20
 optimisation between [QCUT,QGAM] = [  9.92, 20.18] = [ 27.55,114.04] Ry 
 Optimized for a Real-space Cutoff    1.34 Angstroem

   l    n(q)    QCUT    max X(q) W(low)/X(q) W(high)/X(q)  e(spline) 
   0      8     9.919     4.436    0.31E-04    0.59E-04    0.66E-07
   0      8     9.919    16.131    0.16E-03    0.20E-03    0.35E-06
   1      8     9.919     4.654    0.19E-03    0.46E-03    0.40E-06

 ----------------------------------------------------------------------------- 
|                                                                             |
|  ADVICE TO THIS USER RUNNING 'VASP/VAMP'   (HEAR YOUR MASTER'S VOICE ...):  |
|                                                                             |
|      You enforced a specific xc-type in the INCAR file,                     |
|      a different type was found on the POTCAR file                          |
|          I HOPE YOU KNOW, WHAT YOU ARE  DOING                               |
|                                                                             |
 ----------------------------------------------------------------------------- 

 PAW_PBE C 08Apr2002                    :
 energy of atom  1       EATOM= -147.1560
 kinetic energy error for atom=    0.0288 (will be added to EATOM!!)
 PAW_PBE H 15Jun2001                    :
 energy of atom  2       EATOM=  -12.4884
 kinetic energy error for atom=    0.0098 (will be added to EATOM!!)
 
 
 POSCAR:  C  H                                   
  positions in cartesian coordinates
  No initial velocities read in
 exchange correlation table for  LEXCH =       17
   RHO(1)=    0.500       N(1)  =     2000
   RHO(2)=  100.500       N(2)  =     4000

 VTST: version 3.2, (02/03/18)

 CHAIN: initializing optimizer
 
 OPT: Using VASP Dynamics algorithm
 CHAIN: Read ICHAIN            0
 
 POSCAR:  C  H                                   
  positions in cartesian coordinates
  No initial velocities read in
 


--------------------------------------------------------------------------------------------------------


 ion  position               nearest neighbor table
   1  0.458  0.384  0.348-   5 1.09   7 1.09   6 1.10   3 1.54
   2  0.354  0.635  0.370-  12 1.09   8 1.09  10 1.10   3 1.54
   3  0.399  0.492  0.390-   9 1.10   2 1.54   1 1.54   4 1.54
   4  0.547  0.446  0.432-  11 1.09  14 1.09  13 1.10   3 1.54
   5  0.338  0.395  0.327-   1 1.09
   6  0.549  0.396  0.322-   1 1.10
   7  0.534  0.277  0.363-   1 1.09
   8  0.246  0.671  0.341-   2 1.09
   9  0.272  0.503  0.408-   3 1.10
  10  0.478  0.627  0.353-   2 1.10
  11  0.612  0.334  0.439-   4 1.09
  12  0.307  0.714  0.399-   2 1.09
  13  0.657  0.468  0.421-   4 1.10
  14  0.487  0.501  0.467-   4 1.09
 
  LATTYP: Found a simple monoclinic cell.
 ALAT       =    11.0874343290
 B/A-ratio  =     2.4162162653
 C/A-ratio  =     1.5206906326
 COS(beta)  =    -0.9041944302
  
  Lattice vectors:
  
 A1 = (  -5.5437171645,  -9.6019997917,   0.0000000000)
 A2 = (   0.0000000000,   0.0000000000, -26.7896391657)
 A3 = (  13.8592929113,   9.6019997917,   0.0000000000)


Analysis of symmetry for initial positions (statically):
=====================================================================
 Subroutine PRICEL returns:
 Original cell was already a primitive cell.
 

 Routine SETGRP: Setting up the symmetry group for a 
 simple monoclinic supercell.


 Subroutine GETGRP returns: Found  1 space group operations
 (whereof  1 operations were pure point group operations)
 out of a pool of  4 trial point group operations.


The static configuration has the point symmetry C_1 .


Analysis of symmetry for dynamics (positions and initial velocities):
=====================================================================
 Subroutine PRICEL returns:
 Original cell was already a primitive cell.
 

 Routine SETGRP: Setting up the symmetry group for a 
 simple monoclinic supercell.


 Subroutine GETGRP returns: Found  1 space group operations
 (whereof  1 operations were pure point group operations)
 out of a pool of  4 trial point group operations.


The dynamic configuration has the point symmetry C_1 .


 Subroutine INISYM returns: Found  1 space group operations
 (whereof  1 operations are pure point group operations),
 and found     1 'primitive' translations

 
 
 KPOINTS: KPOINTS created by Atomic Simulation Env

Automatic generation of k-mesh.
Space group operators:
 irot       det(A)        alpha          n_x          n_y          n_z        tau_x        tau_y        tau_z
    1     1.000000     0.000000     1.000000     0.000000     0.000000     0.000000     0.000000     0.000000
 
 Subroutine IBZKPT returns following result:
 ===========================================
 
 Found      8 irreducible k-points:
 
 Following reciprocal coordinates:
            Coordinates               Weight
  0.125000  0.125000  0.000000      2.000000
  0.375000  0.125000  0.000000      2.000000
 -0.375000  0.125000  0.000000      2.000000
 -0.125000  0.125000  0.000000      2.000000
  0.125000  0.375000  0.000000      2.000000
  0.375000  0.375000  0.000000      2.000000
 -0.375000  0.375000  0.000000      2.000000
 -0.125000  0.375000  0.000000      2.000000
 
 Following cartesian coordinates:
            Coordinates               Weight
  0.015032  0.004339  0.000000      2.000000
  0.045096 -0.013018  0.000000      2.000000
 -0.045096  0.039054  0.000000      2.000000
 -0.015032  0.021697  0.000000      2.000000
  0.015032  0.030376  0.000000      2.000000
  0.045096  0.013018  0.000000      2.000000
 -0.045096  0.065091  0.000000      2.000000
 -0.015032  0.047733  0.000000      2.000000
 


--------------------------------------------------------------------------------------------------------




 Dimension of arrays:
   k-points           NKPTS =      8   k-points in BZ     NKDIM =      8   number of bands    NBANDS=     24
   number of dos      NEDOS =    301   number of ions     NIONS =     14
   non local maximal  LDIM  =      4   non local SUM 2l+1 LMDIM =      8
   total plane-waves  NPLWV = 699840
   max r-space proj   IRMAX =   3655   max aug-charges    IRDMAX=  31083
   dimension x,y,z NGX =    54 NGY =   72 NGZ =  180
   dimension x,y,z NGXF=   108 NGYF=  144 NGZF=  360
   support grid    NGXF=   216 NGYF=  288 NGZF=  720
   ions per type =               4  10
   NGX,Y,Z   is equivalent  to a cutoff of  10.80, 10.80, 11.17 a.u.
   NGXF,Y,Z  is equivalent  to a cutoff of  21.59, 21.59, 22.34 a.u.

 SYSTEM =  unknown system                          
 POSCAR =   C  H                                   

 Startparameter for this run:
   NWRITE =      2    write-flag & timer
   PREC   = acc       normal or accurate (medium, high low for compatibility)
   ISTART =      1    job   : 0-new  1-cont  2-samecut
   ICHARG =      2    charge: 1-file 2-atom 10-const
   ISPIN  =      1    spin polarized calculation?
   LNONCOLLINEAR =      F non collinear calculations
   LSORBIT =      F    spin-orbit coupling
   INIWAV =      1    electr: 0-lowe 1-rand  2-diag
   LASPH  =      F    aspherical Exc in radial PAW
   METAGGA=      F    non-selfconsistent MetaGGA calc.

 Electronic Relaxation 1
   ENCUT  =  400.0 eV  29.40 Ry    5.42 a.u.  13.56 18.08 43.69*2*pi/ulx,y,z
   ENINI  =  400.0     initial cutoff
   ENAUG  =  644.9 eV  augmentation charge cutoff
   NELM   =    100;   NELMIN=  2; NELMDL=  0     # of ELM steps 
   EDIFF  = 0.1E-02   stopping-criterion for ELM
   LREAL  =      T    real-space projection
   NLSPLINE    = F    spline interpolate recip. space projectors
   LCOMPAT=      F    compatible to vasp.4.4
   GGA_COMPAT  = T    GGA compatible to vasp.4.4-vasp.4.6
   LMAXPAW     = -100 max onsite density
   LMAXMIX     =    2 max onsite mixed and CHGCAR
   VOSKOWN=      0    Vosko Wilk Nusair interpolation
   ROPT   =   -0.00025  -0.00025
 Ionic relaxation
   EDIFFG = 0.1E-01   stopping-criterion for IOM
   NSW    =      0    number of steps for IOM
   NBLOCK =      1;   KBLOCK =      1    inner block; outer block 
   IBRION =     -1    ionic relax: 0-MD 1-quasi-New 2-CG
   NFREE  =      0    steps in history (QN), initial steepest desc. (CG)
   ISIF   =      2    stress and relaxation
   IWAVPR =     10    prediction:  0-non 1-charg 2-wave 3-comb
   ISYM   =      2    0-nonsym 1-usesym 2-fastsym
   LCORR  =      T    Harris-Foulkes like correction to forces

   POTIM  = 0.5000    time-step for ionic-motion
   TEIN   =    0.0    initial temperature
   TEBEG  =    0.0;   TEEND  =   0.0 temperature during run
   SMASS  =  -3.00    Nose mass-parameter (am)
   estimated Nose-frequenzy (Omega)   =  0.10E-29 period in steps =****** mass=  -0.158E-26a.u.
   SCALEE = 1.0000    scale energy and forces
   NPACO  =    256;   APACO  = 16.0  distance and # of slots for P.C.
   PSTRESS=    0.0 pullay stress

  Mass of Ions in am
   POMASS =  12.01  1.00
  Ionic Valenz
   ZVAL   =   4.00  1.00
  Atomic Wigner-Seitz radii
   RWIGS  =  -1.00 -1.00
  virtual crystal weights 
   VCA    =   1.00  1.00
   NELECT =      26.0000    total number of electrons
   NUPDOWN=      -1.0000    fix difference up-down

 DOS related values:
   EMIN   =  10.00;   EMAX   =-10.00  energy-range for DOS
   EFERMI =   0.00
   ISMEAR =     0;   SIGMA  =   0.05  broadening in eV -4-tet -1-fermi 0-gaus

 Electronic relaxation 2 (details)
   IALGO  =     38    algorithm
   LDIAG  =      T    sub-space diagonalisation (order eigenvalues)
   LSUBROT=      F    optimize rotation matrix (better conditioning)
   TURBO    =      0    0=normal 1=particle mesh
   IRESTART =      0    0=no restart 2=restart with 2 vectors
   NREBOOT  =      0    no. of reboots
   NMIN     =      0    reboot dimension
   EREF     =   0.00    reference energy to select bands
   IMIX   =      4    mixing-type and parameters
     AMIX     =   0.40;   BMIX     =  1.00
     AMIX_MAG =   1.60;   BMIX_MAG =  1.00
     AMIN     =   0.10
     WC   =   100.;   INIMIX=   1;  MIXPRE=   1;  MAXMIX= -45

 Intra band minimization:
   WEIMIN = 0.0000     energy-eigenvalue tresh-hold
   EBREAK =  0.10E-04  absolut break condition
   DEPER  =   0.30     relativ break condition  

   TIME   =   0.40     timestep for ELM

  volume/ion in A,a.u.               =     152.79      1031.07
  Fermi-wavevector in a.u.,A,eV,Ry     =   0.376408  0.711308  1.927715  0.141683
  Thomas-Fermi vector in A             =   1.308228
 
 Write flags
   LWAVE        =      T    write WAVECAR
   LDOWNSAMPLE  =      F    k-point downsampling of WAVECAR
   LCHARG       =      F    write CHGCAR
   LVTOT        =      F    write LOCPOT, total local potential
   LVHAR        =      F    write LOCPOT, Hartree potential only
   LELF         =      F    write electronic localiz. function (ELF)
   LORBIT       =      0    0 simple, 1 ext, 2 COOP (PROOUT), +10 PAW based schemes


 Dipole corrections
   LMONO  =      F    monopole corrections only (constant potential shift)
   LDIPOL =      F    correct potential (dipole corrections)
   IDIPOL =      0    1-x, 2-y, 3-z, 4-all directions 
   EPSILON=  1.0000000 bulk dielectric constant

 Exchange correlation treatment:
   GGA     =    BF    GGA type
   LEXCH   =    17    internal setting for exchange type
   VOSKOWN=      0    Vosko Wilk Nusair interpolation
   LHFCALC =     F    Hartree Fock is set to
   LHFONE  =     F    Hartree Fock one center treatment
   AEXX    =    0.0000 exact exchange contribution

 vdW DFT:
   LUSE_VDW   =     T    switch on vdW DFT
   Zab_VDW    =******    correlation parameter
   PARAM1     =0.1234
   PARAM2     =1.0000
   PARAM3     =0.0000
   -- rVV10 --
   BPARAM     = 6.3000
   CPARAM     = 0.0093

 Linear response parameters
   LEPSILON=     F    determine dielectric tensor
   LRPA    =     F    only Hartree local field effects (RPA)
   LNABLA  =     F    use nabla operator in PAW spheres
   LVEL    =     F    velocity operator in full k-point grid
   LINTERFAST=   F  fast interpolation
   KINTER  =     0    interpolate to denser k-point grid
   CSHIFT  =0.1000    complex shift for real part using Kramers Kronig
   OMEGAMAX=  -1.0    maximum frequency
   DEG_THRESHOLD= 0.2000000E-02 threshold for treating states as degnerate
   RTIME   =   -0.100 relaxation time in fs
  (WPLASMAI=    0.000 imaginary part of plasma frequency in eV, 0.658/RTIME)
   DFIELD  = 0.0000000 0.0000000 0.0000000 field for delta impulse in time
 
 Orbital magnetization related:
   ORBITALMAG=     F  switch on orbital magnetization
   LCHIMAG   =     F  perturbation theory with respect to B field
   DQ        =  0.001000  dq finite difference perturbation B field
   LLRAUG    =     F  two centre corrections for induced B field



--------------------------------------------------------------------------------------------------------


 Static calculation
 charge density and potential will be updated during run
 non-spin polarized calculation
 Variant of blocked Davidson
 Davidson routine will perform the subspace rotation
 perform sub-space diagonalisation
    after iterative eigenvector-optimisation
 modified Broyden-mixing scheme, WC =      100.0
 initial mixing is a Kerker type mixing with AMIX =  0.4000 and BMIX =      1.0000
 Hartree-type preconditioning will be used
 using additional bands           11
 real space projection scheme for non local part
 calculate Harris-corrections to forces 
   (improved forces if not selfconsistent)
 use gradient corrections 
 use of overlap-Matrix (Vanderbilt PP)
 Gauss-broadening in eV      SIGMA  =   0.05


--------------------------------------------------------------------------------------------------------


  energy-cutoff  :      400.00
  volume of cell :     2139.05
      direct lattice vectors                 reciprocal lattice vectors
     8.315575747  0.000000000  0.000000000     0.120256255 -0.069429981  0.000000000
     5.543717165  9.601999792  0.000000000     0.000000000  0.104144972  0.000000000
     0.000000000  0.000000000 26.789639166     0.000000000  0.000000000  0.037327864

  length of vectors
     8.315575747 11.087434329 26.789639166     0.138859963  0.104144972  0.037327864


 
 old parameters found on file WAVECAR:
  energy-cutoff  :      400.00
  volume of cell :     2139.05
      direct lattice vectors                 reciprocal lattice vectors
     8.315575747  0.000000000  0.000000000     0.120256255 -0.069429981  0.000000000
     5.543717165  9.601999792  0.000000000     0.000000000  0.104144972  0.000000000
     0.000000000  0.000000000 26.789639166     0.000000000  0.000000000  0.037327864

  length of vectors

 
 k-points in units of 2pi/SCALE and weight: KPOINTS created by Atomic Simulation Env
   0.01503203  0.00433937  0.00000000       0.125
   0.04509610 -0.01301812  0.00000000       0.125
  -0.04509610  0.03905436  0.00000000       0.125
  -0.01503203  0.02169687  0.00000000       0.125
   0.01503203  0.03037562  0.00000000       0.125
   0.04509610  0.01301812  0.00000000       0.125
  -0.04509610  0.06509061  0.00000000       0.125
  -0.01503203  0.04773311  0.00000000       0.125
 
 k-points in reciprocal lattice and weights: KPOINTS created by Atomic Simulation Env
   0.12500000  0.12500000  0.00000000       0.125
   0.37500000  0.12500000  0.00000000       0.125
  -0.37500000  0.12500000  0.00000000       0.125
  -0.12500000  0.12500000  0.00000000       0.125
   0.12500000  0.37500000  0.00000000       0.125
   0.37500000  0.37500000  0.00000000       0.125
  -0.37500000  0.37500000  0.00000000       0.125
  -0.12500000  0.37500000  0.00000000       0.125
 
 position of ions in fractional coordinates (direct lattice) 
   0.45795902  0.38382317  0.34825366
   0.35374358  0.63451262  0.36961080
   0.39886834  0.49191003  0.39049052
   0.54711770  0.44580401  0.43171541
   0.33794464  0.39530619  0.32742061
   0.54925072  0.39555302  0.32161575
   0.53388771  0.27730786  0.36269619
   0.24578509  0.67109041  0.34088253
   0.27172739  0.50332119  0.40753068
   0.47827117  0.62735161  0.35273711
   0.61211823  0.33415747  0.43925564
   0.30678722  0.71353886  0.39899754
   0.65734814  0.46756927  0.42107697
   0.48665112  0.50107999  0.46666175
 
 position of ions in cartesian coordinates  (Angst):
   5.93600000  3.68547000  9.32959000
   6.45914000  6.09259000  9.90174000
   6.04383000  4.72332000 10.46110000
   7.02101000  4.28061000 11.56550000
   5.00167000  3.79573000  8.77148000
   6.76017000  3.79810000  8.61597000
   5.97690000  2.66271000  9.71650000
   5.76418000  6.44381000  9.13212000
   5.04984000  4.83289000 10.91760000
   7.45496000  6.02383000  9.44970000
   6.94259000  3.20858000 11.76750000
   6.50677000  6.85140000 10.68900000
   8.05830000  4.48960000 11.28050000
   6.82463000  4.81137000 12.50170000
 


--------------------------------------------------------------------------------------------------------


 k-point  1 :   0.1250 0.1250 0.0000  plane waves:   38866
 k-point  2 :   0.3750 0.1250 0.0000  plane waves:   38821
 k-point  3 :  -0.3750 0.1250 0.0000  plane waves:   38806
 k-point  4 :  -0.1250 0.1250 0.0000  plane waves:   38864
 k-point  5 :   0.1250 0.3750 0.0000  plane waves:   38862
 k-point  6 :   0.3750 0.3750 0.0000  plane waves:   38888
 k-point  7 :  -0.3750 0.3750 0.0000  plane waves:   38838
 k-point  8 :  -0.1250 0.3750 0.0000  plane waves:   38891

 maximum and minimum number of plane-waves per node :     19465    19374

 maximum number of plane-waves:     38891
 maximum index in each direction: 
   IXMAX=   13   IYMAX=   17   IZMAX=   43
   IXMIN=  -13   IYMIN=  -18   IZMIN=  -43


 real space projection operators:
  total allocation   :       2123.50 KBytes
  max/ min on nodes  :       1062.15       1061.35


 parallel 3D FFT for wavefunctions:
    minimum data exchange during FFTs selected (reduces bandwidth)
 parallel 3D FFT for charge:
    minimum data exchange during FFTs selected (reduces bandwidth)


 total amount of memory used by VASP MPI-rank0   137023. kBytes
=======================================================================

   base      :      30000. kBytes
   nonlr-proj:       2166. kBytes
   fftplans  :      62912. kBytes
   grid      :      34429. kBytes
   one-center:         21. kBytes
   wavefun   :       7495. kBytes
 
     INWAV:  cpu time    0.2680: real time    0.2689
 Broyden mixing: mesh for mixing (old mesh)
   NGX = 27   NGY = 37   NGZ = 87
  (NGX  =108   NGY  =144   NGZ  =360)
  gives a total of  86913 points

 initial charge density was supplied:
 charge density of overlapping atoms calculated
 number of electron      26.0000000 magnetization 
 keeping initial charge density in first step


--------------------------------------------------------------------------------------------------------


 Maximum index for non-local projection operator         1762
 Maximum index for augmentation-charges         1901 (set IRDMAX)


--------------------------------------------------------------------------------------------------------


 First call to EWALD:  gamma=   0.138
 Maximum number of real-space cells 5x 4x 2
 Maximum number of reciprocal cells 2x 2x 5

    FEWALD:  cpu time    0.0013: real time    0.0013


--------------------------------------- Iteration      1(   1)  ---------------------------------------


vdW kernel read from vdw_kernel.bindat
  0.0000  0.2424  0.5071  0.7962  1.1119  1.4567  1.8333  2.2446  2.6937  3.1842
  3.7199  4.3049  4.9438  5.6415  6.4036  7.2358  8.1446  9.1372 10.2212 11.4050
 12.6979 14.1099 15.6519 17.3360 19.1751 21.1837 23.3773 25.7729 28.3892 31.2465
 34.3669 37.7748 41.4965 45.5611 50.0000
 
    POTLOK:  cpu time    9.9505: real time   10.0128
    SETDIJ:  cpu time    0.0908: real time    0.0911
     EDDAV:  cpu time    2.0806: real time    2.0858
       DOS:  cpu time    0.0002: real time    0.0002
    CHARGE:  cpu time    0.2107: real time    0.2112
    MIXING:  cpu time    0.0054: real time    0.0055
    --------------------------------------------
      LOOP:  cpu time   12.3383: real time   12.4064

 eigenvalue-minimisations  :   584
 total energy-change (2. order) :-0.8666589E+02  (-0.3325651E+01)
 number of electron      26.0000000 magnetization 
 augmentation part        0.7013820 magnetization 

 Broyden mixing:
  rms(total) = 0.13790E+01    rms(broyden)= 0.13787E+01
  rms(prec ) = 0.14747E+01
  weight for this iteration     100.00

 Free energy of the ion-electron system (eV)
  ---------------------------------------------------
  alpha Z        PSCENC =         1.28650428
  Ewald energy   TEWEN  =      1748.95057127
  -Hartree energ DENC   =     -2185.94788997
  -exchange      EXHF   =         0.00000000
  -V(xc)+E(xc)   XCENC  =        79.03090081
  PAW double counting   =       152.91373464     -159.42092291
  entropy T*S    EENTRO =        -0.00000000
  eigenvalues    EBANDS =      -443.65461720
  atomic energy  EATOM  =       720.17582891
  Solvation  Ediel_sol  =         0.00000000
  ---------------------------------------------------
  free energy    TOTEN  =       -86.66589016 eV

  energy without entropy =      -86.66589016  energy(sigma->0) =      -86.66589016


--------------------------------------------------------------------------------------------------------




--------------------------------------- Iteration      1(   2)  ---------------------------------------


    POTLOK:  cpu time    9.5492: real time    9.5831
    SETDIJ:  cpu time    0.0903: real time    0.0905
     EDDAV:  cpu time    1.7934: real time    1.7978
       DOS:  cpu time    0.0002: real time    0.0002
    CHARGE:  cpu time    0.2048: real time    0.2053
    MIXING:  cpu time    0.0059: real time    0.0059
    --------------------------------------------
      LOOP:  cpu time   11.6438: real time   11.6828

 eigenvalue-minimisations  :   496
 total energy-change (2. order) : 0.6606207E+01  (-0.1163895E+01)
 number of electron      26.0000000 magnetization 
 augmentation part        0.6471562 magnetization 

 Broyden mixing:
  rms(total) = 0.68763E+00    rms(broyden)= 0.68756E+00
  rms(prec ) = 0.73097E+00
  weight for this iteration     100.00

 eigenvalues of (default mixing * dielectric matrix)
  average eigenvalue GAMMA=   1.6077
  1.6077

 Free energy of the ion-electron system (eV)
  ---------------------------------------------------
  alpha Z        PSCENC =         1.28650428
  Ewald energy   TEWEN  =      1748.95057127
  -Hartree energ DENC   =     -2245.74164625
  -exchange      EXHF   =         0.00000000
  -V(xc)+E(xc)   XCENC  =        82.05543916
  PAW double counting   =       237.10952568     -243.77584605
  entropy T*S    EENTRO =        -0.00000000
  eigenvalues    EBANDS =      -380.12005984
  atomic energy  EATOM  =       720.17582891
  Solvation  Ediel_sol  =         0.00000000
  ---------------------------------------------------
  free energy    TOTEN  =       -80.05968282 eV

  energy without entropy =      -80.05968282  energy(sigma->0) =      -80.05968282


--------------------------------------------------------------------------------------------------------




--------------------------------------- Iteration      1(   3)  ---------------------------------------


    POTLOK:  cpu time    9.6417: real time    9.6656
    SETDIJ:  cpu time    0.0919: real time    0.0921
     EDDAV:  cpu time    1.7668: real time    1.7712
       DOS:  cpu time    0.0002: real time    0.0002
    CHARGE:  cpu time    0.2051: real time    0.2056
    MIXING:  cpu time    0.0057: real time    0.0057
    --------------------------------------------
      LOOP:  cpu time   11.7114: real time   11.7404

 eigenvalue-minimisations  :   488
 total energy-change (2. order) : 0.1869886E+01  (-0.5036361E+00)
 number of electron      26.0000000 magnetization 
 augmentation part        0.6098082 magnetization 

 Broyden mixing:
  rms(total) = 0.28492E+00    rms(broyden)= 0.28477E+00
  rms(prec ) = 0.29834E+00
  weight for this iteration     100.00

 eigenvalues of (default mixing * dielectric matrix)
  average eigenvalue GAMMA=   1.9184
  1.9184  1.9184

 Free energy of the ion-electron system (eV)
  ---------------------------------------------------
  alpha Z        PSCENC =         1.28650428
  Ewald energy   TEWEN  =      1748.95057127
  -Hartree energ DENC   =     -2295.15436715
  -exchange      EXHF   =         0.00000000
  -V(xc)+E(xc)   XCENC  =        85.03580976
  PAW double counting   =       310.16226290     -316.86854953
  entropy T*S    EENTRO =        -0.00000000
  eigenvalues    EBANDS =      -331.77785767
  atomic energy  EATOM  =       720.17582891
  Solvation  Ediel_sol  =         0.00000000
  ---------------------------------------------------
  free energy    TOTEN  =       -78.18979722 eV

  energy without entropy =      -78.18979722  energy(sigma->0) =      -78.18979722


--------------------------------------------------------------------------------------------------------




--------------------------------------- Iteration      1(   4)  ---------------------------------------


    POTLOK:  cpu time    9.5765: real time    9.6027
    SETDIJ:  cpu time    0.0894: real time    0.0896
     EDDAV:  cpu time    1.8144: real time    1.8188
       DOS:  cpu time    0.0001: real time    0.0001
    CHARGE:  cpu time    0.2103: real time    0.2108
    MIXING:  cpu time    0.0061: real time    0.0061
    --------------------------------------------
      LOOP:  cpu time   11.6969: real time   11.7282

 eigenvalue-minimisations  :   496
 total energy-change (2. order) : 0.3070709E+00  (-0.5587666E-01)
 number of electron      26.0000000 magnetization 
 augmentation part        0.6117878 magnetization 

 Broyden mixing:
  rms(total) = 0.60440E-01    rms(broyden)= 0.60418E-01
  rms(prec ) = 0.72652E-01
  weight for this iteration     100.00

 eigenvalues of (default mixing * dielectric matrix)
  average eigenvalue GAMMA=   1.6749
  2.3757  1.3245  1.3245

 Free energy of the ion-electron system (eV)
  ---------------------------------------------------
  alpha Z        PSCENC =         1.28650428
  Ewald energy   TEWEN  =      1748.95057127
  -Hartree energ DENC   =     -2306.41114847
  -exchange      EXHF   =         0.00000000
  -V(xc)+E(xc)   XCENC  =        86.02716273
  PAW double counting   =       317.62732120     -324.28209268
  entropy T*S    EENTRO =        -0.00000000
  eigenvalues    EBANDS =      -321.25687356
  atomic energy  EATOM  =       720.17582891
  Solvation  Ediel_sol  =         0.00000000
  ---------------------------------------------------
  free energy    TOTEN  =       -77.88272632 eV

  energy without entropy =      -77.88272632  energy(sigma->0) =      -77.88272632


--------------------------------------------------------------------------------------------------------




--------------------------------------- Iteration      1(   5)  ---------------------------------------


    POTLOK:  cpu time    9.5584: real time    9.6318
    SETDIJ:  cpu time    0.0921: real time    0.0924
     EDDAV:  cpu time    1.8203: real time    1.8248
       DOS:  cpu time    0.0002: real time    0.0002
    CHARGE:  cpu time    0.2049: real time    0.2054
    MIXING:  cpu time    0.0057: real time    0.0057
    --------------------------------------------
      LOOP:  cpu time   11.6816: real time   11.7602

 eigenvalue-minimisations  :   504
 total energy-change (2. order) : 0.3473375E-01  (-0.1336777E-01)
 number of electron      26.0000000 magnetization 
 augmentation part        0.6066169 magnetization 

 Broyden mixing:
  rms(total) = 0.31229E-01    rms(broyden)= 0.31213E-01
  rms(prec ) = 0.38961E-01
  weight for this iteration     100.00

 eigenvalues of (default mixing * dielectric matrix)
  average eigenvalue GAMMA=   1.8306
  2.4618  2.4618  1.1994  1.1994

 Free energy of the ion-electron system (eV)
  ---------------------------------------------------
  alpha Z        PSCENC =         1.28650428
  Ewald energy   TEWEN  =      1748.95057127
  -Hartree energ DENC   =     -2314.21703158
  -exchange      EXHF   =         0.00000000
  -V(xc)+E(xc)   XCENC  =        86.37781622
  PAW double counting   =       325.04400827     -331.70379607
  entropy T*S    EENTRO =        -0.00000000
  eigenvalues    EBANDS =      -313.76189387
  atomic energy  EATOM  =       720.17582891
  Solvation  Ediel_sol  =         0.00000000
  ---------------------------------------------------
  free energy    TOTEN  =       -77.84799256 eV

  energy without entropy =      -77.84799256  energy(sigma->0) =      -77.84799256


--------------------------------------------------------------------------------------------------------




--------------------------------------- Iteration      1(   6)  ---------------------------------------


    POTLOK:  cpu time    9.5321: real time    9.5566
    SETDIJ:  cpu time    0.0899: real time    0.0901
     EDDAV:  cpu time    1.8097: real time    1.8142
       DOS:  cpu time    0.0001: real time    0.0001
    CHARGE:  cpu time    0.2039: real time    0.2044
    MIXING:  cpu time    0.0060: real time    0.0061
    --------------------------------------------
      LOOP:  cpu time   11.6418: real time   11.6714

 eigenvalue-minimisations  :   504
 total energy-change (2. order) : 0.1483227E-01  (-0.2158534E-02)
 number of electron      26.0000000 magnetization 
 augmentation part        0.6075471 magnetization 

 Broyden mixing:
  rms(total) = 0.20127E-01    rms(broyden)= 0.20125E-01
  rms(prec ) = 0.25133E-01
  weight for this iteration     100.00

 eigenvalues of (default mixing * dielectric matrix)
  average eigenvalue GAMMA=   1.6701
  2.4711  2.4711  1.2856  1.2856  0.8370

 Free energy of the ion-electron system (eV)
  ---------------------------------------------------
  alpha Z        PSCENC =         1.28650428
  Ewald energy   TEWEN  =      1748.95057127
  -Hartree energ DENC   =     -2317.65305084
  -exchange      EXHF   =         0.00000000
  -V(xc)+E(xc)   XCENC  =        86.35649246
  PAW double counting   =       320.12603475     -326.77679498
  entropy T*S    EENTRO =        -0.00000000
  eigenvalues    EBANDS =      -310.29874614
  atomic energy  EATOM  =       720.17582891
  Solvation  Ediel_sol  =         0.00000000
  ---------------------------------------------------
  free energy    TOTEN  =       -77.83316029 eV

  energy without entropy =      -77.83316029  energy(sigma->0) =      -77.83316029


--------------------------------------------------------------------------------------------------------




--------------------------------------- Iteration      1(   7)  ---------------------------------------


    POTLOK:  cpu time    9.5661: real time    9.5915
    SETDIJ:  cpu time    0.0899: real time    0.0901
     EDDAV:  cpu time    1.5925: real time    1.5964
       DOS:  cpu time    0.0001: real time    0.0001
    CHARGE:  cpu time    0.2072: real time    0.2078
    MIXING:  cpu time    0.0060: real time    0.0060
    --------------------------------------------
      LOOP:  cpu time   11.4618: real time   11.4919

 eigenvalue-minimisations  :   432
 total energy-change (2. order) : 0.8838417E-02  (-0.3851383E-03)
 number of electron      26.0000000 magnetization 
 augmentation part        0.6071669 magnetization 

 Broyden mixing:
  rms(total) = 0.11993E-01    rms(broyden)= 0.11992E-01
  rms(prec ) = 0.16404E-01
  weight for this iteration     100.00

 eigenvalues of (default mixing * dielectric matrix)
  average eigenvalue GAMMA=   1.9212
  3.6663  2.6170  1.8428  1.2825  1.0594  1.0594

 Free energy of the ion-electron system (eV)
  ---------------------------------------------------
  alpha Z        PSCENC =         1.28650428
  Ewald energy   TEWEN  =      1748.95057127
  -Hartree energ DENC   =     -2319.93341529
  -exchange      EXHF   =         0.00000000
  -V(xc)+E(xc)   XCENC  =        86.45727295
  PAW double counting   =       321.11174180     -327.76165311
  entropy T*S    EENTRO =        -0.00000000
  eigenvalues    EBANDS =      -308.11117268
  atomic energy  EATOM  =       720.17582891
  Solvation  Ediel_sol  =         0.00000000
  ---------------------------------------------------
  free energy    TOTEN  =       -77.82432187 eV

  energy without entropy =      -77.82432187  energy(sigma->0) =      -77.82432187


--------------------------------------------------------------------------------------------------------




--------------------------------------- Iteration      1(   8)  ---------------------------------------


    POTLOK:  cpu time    9.4708: real time    9.5399
    SETDIJ:  cpu time    0.0918: real time    0.0921
     EDDAV:  cpu time    1.6807: real time    1.6848
       DOS:  cpu time    0.0001: real time    0.0001
    CHARGE:  cpu time    0.2007: real time    0.2012
    MIXING:  cpu time    0.0056: real time    0.0056
    --------------------------------------------
      LOOP:  cpu time   11.4497: real time   11.5237

 eigenvalue-minimisations  :   456
 total energy-change (2. order) : 0.1107666E-01  (-0.1572169E-02)
 number of electron      26.0000000 magnetization 
 augmentation part        0.6057976 magnetization 

 Broyden mixing:
  rms(total) = 0.73768E-02    rms(broyden)= 0.73714E-02
  rms(prec ) = 0.86734E-02
  weight for this iteration     100.00

 eigenvalues of (default mixing * dielectric matrix)
  average eigenvalue GAMMA=   1.8059
  4.2323  2.2834  1.8483  1.2579  1.2579  0.8806  0.8806

 Free energy of the ion-electron system (eV)
  ---------------------------------------------------
  alpha Z        PSCENC =         1.28650428
  Ewald energy   TEWEN  =      1748.95057127
  -Hartree energ DENC   =     -2324.60928809
  -exchange      EXHF   =         0.00000000
  -V(xc)+E(xc)   XCENC  =        86.57136551
  PAW double counting   =       321.63431010     -328.28710147
  entropy T*S    EENTRO =        -0.00000000
  eigenvalues    EBANDS =      -303.53543573
  atomic energy  EATOM  =       720.17582891
  Solvation  Ediel_sol  =         0.00000000
  ---------------------------------------------------
  free energy    TOTEN  =       -77.81324521 eV

  energy without entropy =      -77.81324521  energy(sigma->0) =      -77.81324521


--------------------------------------------------------------------------------------------------------




--------------------------------------- Iteration      1(   9)  ---------------------------------------


    POTLOK:  cpu time    9.4756: real time    9.4999
    SETDIJ:  cpu time    0.0900: real time    0.0902
     EDDAV:  cpu time    1.6872: real time    1.6913
       DOS:  cpu time    0.0001: real time    0.0001
    --------------------------------------------
      LOOP:  cpu time   11.2529: real time   11.2816

 eigenvalue-minimisations  :   456
 total energy-change (2. order) : 0.9022347E-04  (-0.8444897E-04)
 number of electron      26.0000000 magnetization 
 augmentation part        0.6057976 magnetization 

 Free energy of the ion-electron system (eV)
  ---------------------------------------------------
  alpha Z        PSCENC =         1.28650428
  Ewald energy   TEWEN  =      1748.95057127
  -Hartree energ DENC   =     -2324.99745700
  -exchange      EXHF   =         0.00000000
  -V(xc)+E(xc)   XCENC  =        86.58826657
  PAW double counting   =       321.79573951     -328.44792558
  entropy T*S    EENTRO =        -0.00000000
  eigenvalues    EBANDS =      -303.16468294
  atomic energy  EATOM  =       720.17582891
  Solvation  Ediel_sol  =         0.00000000
  ---------------------------------------------------
  free energy    TOTEN  =       -77.81315499 eV

  energy without entropy =      -77.81315499  energy(sigma->0) =      -77.81315499


--------------------------------------------------------------------------------------------------------




 average (electrostatic) potential at core
  the test charge radii are     0.6991  0.5201
  (the norm of the test charge is              1.0000)
       1 -58.4365       2 -58.4553       3 -58.7673       4 -58.4343       5 -42.6073
       6 -42.5779       7 -42.5911       8 -42.5973       9 -42.4963      10 -42.5968
      11 -42.5974      12 -42.5991      13 -42.5894      14 -42.6037
 
 
 
 E-fermi :  -7.5861     XC(G=0):  -0.8509     alpha+bet : -0.3168


 k-point     1 :       0.1250    0.1250    0.0000
  band No.  band energies     occupation 
      1     -19.9651      2.00000
      2     -16.9614      2.00000
      3     -16.9268      2.00000
      4     -13.8675      2.00000
      5     -11.3523      2.00000
      6     -10.5775      2.00000
      7     -10.5234      2.00000
      8      -9.4904      2.00000
      9      -9.3198      2.00000
     10      -8.8356      2.00000
     11      -7.9794      2.00000
     12      -7.9644      2.00000
     13      -7.8194      2.00000
     14      -1.0440      0.00000
     15      -0.4350      0.00000
     16       0.0490      0.00000
     17       0.2920      0.00000
     18       0.4354      0.00000
     19       0.4973      0.00000
     20       0.6290      0.00000
     21       0.8308      0.00000
     22       0.8925      0.00000
     23       1.1091      0.00000
     24       1.2032      0.00000

 k-point     2 :       0.3750    0.1250    0.0000
  band No.  band energies     occupation 
      1     -19.9651      2.00000
      2     -16.9614      2.00000
      3     -16.9268      2.00000
      4     -13.8676      2.00000
      5     -11.3527      2.00000
      6     -10.5773      2.00000
      7     -10.5234      2.00000
      8      -9.4898      2.00000
      9      -9.3199      2.00000
     10      -8.8356      2.00000
     11      -7.9797      2.00000
     12      -7.9646      2.00000
     13      -7.8168      2.00000
     14      -0.7743      0.00000
     15      -0.1651      0.00000
     16      -0.0104      0.00000
     17       0.1591      0.00000
     18       0.3238      0.00000
     19       0.3983      0.00000
     20       0.6126      0.00000
     21       0.6973      0.00000
     22       0.8145      0.00000
     23       0.9939      0.00000
     24       1.1297      0.00000

 k-point     3 :      -0.3750    0.1250    0.0000
  band No.  band energies     occupation 
      1     -19.9651      2.00000
      2     -16.9614      2.00000
      3     -16.9268      2.00000
      4     -13.8676      2.00000
      5     -11.3527      2.00000
      6     -10.5772      2.00000
      7     -10.5235      2.00000
      8      -9.4898      2.00000
      9      -9.3197      2.00000
     10      -8.8354      2.00000
     11      -7.9802      2.00000
     12      -7.9647      2.00000
     13      -7.8168      2.00000
     14      -0.5784      0.00000
     15      -0.2219      0.00000
     16      -0.1328      0.00000
     17       0.0212      0.00000
     18       0.3505      0.00000
     19       0.4623      0.00000
     20       0.4901      0.00000
     21       0.5492      0.00000
     22       0.9198      0.00000
     23       0.9342      0.00000
     24       0.9933      0.00000

 k-point     4 :      -0.1250    0.1250    0.0000
  band No.  band energies     occupation 
      1     -19.9652      2.00000
      2     -16.9615      2.00000
      3     -16.9268      2.00000
      4     -13.8675      2.00000
      5     -11.3522      2.00000
      6     -10.5774      2.00000
      7     -10.5235      2.00000
      8      -9.4905      2.00000
      9      -9.3198      2.00000
     10      -8.8355      2.00000
     11      -7.9798      2.00000
     12      -7.9646      2.00000
     13      -7.8194      2.00000
     14      -0.9744      0.00000
     15      -0.3744      0.00000
     16      -0.0924      0.00000
     17       0.1287      0.00000
     18       0.4571      0.00000
     19       0.5670      0.00000
     20       0.6161      0.00000
     21       0.8565      0.00000
     22       0.8972      0.00000
     23       1.0160      0.00000
     24       1.1305      0.00000

 k-point     5 :       0.1250    0.3750    0.0000
  band No.  band energies     occupation 
      1     -19.9652      2.00000
      2     -16.9614      2.00000
      3     -16.9268      2.00000
      4     -13.8675      2.00000
      5     -11.3522      2.00000
      6     -10.5774      2.00000
      7     -10.5235      2.00000
      8      -9.4904      2.00000
      9      -9.3197      2.00000
     10      -8.8356      2.00000
     11      -7.9799      2.00000
     12      -7.9646      2.00000
     13      -7.8194      2.00000
     14      -0.9092      0.00000
     15      -0.3135      0.00000
     16      -0.2561      0.00000
     17       0.1882      0.00000
     18       0.2877      0.00000
     19       0.4089      0.00000
     20       0.6367      0.00000
     21       0.8437      0.00000
     22       0.9506      0.00000
     23       1.0558      0.00000
     24       1.1237      0.00000

 k-point     6 :       0.3750    0.3750    0.0000
  band No.  band energies     occupation 
      1     -19.9651      2.00000
      2     -16.9615      2.00000
      3     -16.9268      2.00000
      4     -13.8677      2.00000
      5     -11.3528      2.00000
      6     -10.5774      2.00000
      7     -10.5235      2.00000
      8      -9.4898      2.00000
      9      -9.3200      2.00000
     10      -8.8358      2.00000
     11      -7.9795      2.00000
     12      -7.9645      2.00000
     13      -7.8169      2.00000
     14      -0.7793      0.00000
     15      -0.2305      0.00000
     16      -0.1533      0.00000
     17       0.2763      0.00000
     18       0.3579      0.00000
     19       0.3885      0.00000
     20       0.6784      0.00000
     21       0.7892      0.00000
     22       0.8652      0.00000
     23       1.0176      0.00000
     24       1.1077      0.00000

 k-point     7 :      -0.3750    0.3750    0.0000
  band No.  band energies     occupation 
      1     -19.9651      2.00000
      2     -16.9615      2.00000
      3     -16.9268      2.00000
      4     -13.8676      2.00000
      5     -11.3527      2.00000
      6     -10.5773      2.00000
      7     -10.5234      2.00000
      8      -9.4898      2.00000
      9      -9.3198      2.00000
     10      -8.8356      2.00000
     11      -7.9799      2.00000
     12      -7.9646      2.00000
     13      -7.8168      2.00000
     14      -0.5929      0.00000
     15      -0.2876      0.00000
     16      -0.1676      0.00000
     17       0.0259      0.00000
     18       0.3064      0.00000
     19       0.4012      0.00000
     20       0.5324      0.00000
     21       0.8318      0.00000
     22       0.9336      0.00000
     23       0.9932      0.00000
     24       1.1583      0.00000

 k-point     8 :      -0.1250    0.3750    0.0000
  band No.  band energies     occupation 
      1     -19.9652      2.00000
      2     -16.9615      2.00000
      3     -16.9269      2.00000
      4     -13.8675      2.00000
      5     -11.3522      2.00000
      6     -10.5774      2.00000
      7     -10.5236      2.00000
      8      -9.4904      2.00000
      9      -9.3197      2.00000
     10      -8.8356      2.00000
     11      -7.9805      2.00000
     12      -7.9648      2.00000
     13      -7.8195      2.00000
     14      -0.7223      0.00000
     15      -0.5564      0.00000
     16      -0.1308      0.00000
     17       0.0014      0.00000
     18       0.3832      0.00000
     19       0.4312      0.00000
     20       0.5442      0.00000
     21       0.8143      0.00000
     22       0.9237      0.00000
     23       1.1015      0.00000
     24       1.1885      0.00000


--------------------------------------------------------------------------------------------------------


 soft charge-density along one line, spin component           1
         0         1         2         3         4         5         6         7         8         9
 total charge-density along one line
 
 pseudopotential strength for first ion, spin component:           1
 10.250   0.020  -0.000  -0.001  -0.000   0.000   0.001   0.000
  0.020  -0.001   0.000   0.000   0.000   0.000   0.000   0.000
 -0.000   0.000  -4.237   0.001   0.000  -0.015   0.000   0.000
 -0.001   0.000   0.001  -4.236   0.000   0.000  -0.015  -0.000
 -0.000   0.000   0.000   0.000  -4.237   0.000  -0.000  -0.015
  0.000   0.000  -0.015   0.000   0.000  -0.772   0.000   0.000
  0.001   0.000   0.000  -0.015  -0.000   0.000  -0.772   0.000
  0.000   0.000   0.000  -0.000  -0.015   0.000   0.000  -0.772
 total augmentation occupancy for first ion, spin component:           1
  1.453  -1.180  -0.002   0.000   0.000  -0.005  -0.006  -0.000
 -1.180   1.037   0.023   0.029   0.001  -0.001  -0.001  -0.001
 -0.002   0.023   1.113  -0.025  -0.001   0.195  -0.002  -0.000
  0.000   0.029  -0.025   1.111   0.001  -0.002   0.195   0.001
  0.000   0.001  -0.001   0.001   1.133  -0.000   0.001   0.196
 -0.005  -0.001   0.195  -0.002  -0.000   0.036   0.001   0.000
 -0.006  -0.001  -0.002   0.195   0.001   0.001   0.036   0.000
 -0.000  -0.001  -0.000   0.001   0.196   0.000   0.000   0.035


------------------------ aborting loop because EDIFF is reached ----------------------------------------


    CHARGE:  cpu time    0.1987: real time    0.1992
    FORLOC:  cpu time    0.0258: real time    0.0258
    FORNL :  cpu time    1.0237: real time    1.0263
    STRESS:  cpu time    3.2034: real time    3.2112
    FORHAR:  cpu time    0.0604: real time    0.0605
    MIXING:  cpu time    0.0056: real time    0.0056
    OFIELD:  cpu time    0.0000: real time    0.0000

  FORCE on cell =-STRESS in cart. coord.  units (eV):
  Direction    XX          YY          ZZ          XY          YZ          ZX
  --------------------------------------------------------------------------------------
  Alpha Z     1.28650     1.28650     1.28650
  Ewald    1219.50386  1358.18968  -828.74340    19.53525   -11.64559   126.99322
  Hartree  1435.26090  1520.44716  -629.95272    13.70423    -9.25990    98.87369
  E(xc)     -94.56944   -94.90948   -94.83207    -0.04347     0.02290    -0.14695
  Local   -2867.85708 -3097.06588  1241.15324   -33.98878    21.20873  -228.32815
  n-local   -43.97921   -43.09057   -43.21822     0.12443    -0.03161     0.44576
  augment    -0.16850    -0.11559    -0.12420     0.00723    -0.00276     0.02479
  Kinetic   349.16724   354.01289   353.18186     0.60142    -0.28979     2.12267
  Fock        0.00000     0.00000     0.00000     0.00000     0.00000     0.00000
  -------------------------------------------------------------------------------------
  Total      -1.35573    -1.24528    -1.24900    -0.05970     0.00199    -0.01497
  in kB      -1.01546    -0.93273    -0.93552    -0.04471     0.00149    -0.01121
  external pressure =       -0.96 kB  Pullay stress =        0.00 kB


 VOLUME and BASIS-vectors are now :
 -----------------------------------------------------------------------------
  energy-cutoff  :      400.00
  volume of cell :     2139.05
      direct lattice vectors                 reciprocal lattice vectors
     8.315575747  0.000000000  0.000000000     0.120256255 -0.069429981  0.000000000
     5.543717165  9.601999792  0.000000000     0.000000000  0.104144972  0.000000000
     0.000000000  0.000000000 26.789639166     0.000000000  0.000000000  0.037327864

  length of vectors
     8.315575747 11.087434329 26.789639166     0.138859963  0.104144972  0.037327864


 FORCES acting on ions
    electron-ion (+dipol)            ewald-force                    non-local-force                 convergence-correction
 -----------------------------------------------------------------------------------------------
   0.296E+02 0.931E+02 0.109E+03   -.295E+02 -.926E+02 -.108E+03   -.360E-01 -.555E+00 -.793E+00   0.946E-02 0.477E-01 0.513E-01
   -.152E+02 -.129E+03 0.485E+02   0.150E+02 0.128E+03 -.483E+02   0.181E+00 0.837E+00 -.276E+00   -.184E-01 -.603E-01 0.277E-01
   0.610E+02 -.382E+01 -.314E+02   -.611E+02 0.374E+01 0.315E+02   0.764E-01 0.102E+00 -.259E-01   0.368E-01 0.757E-03 -.443E-02
   -.648E+02 0.394E+02 -.131E+03   0.642E+02 -.393E+02 0.130E+03   0.650E+00 -.137E+00 0.718E+00   -.601E-01 0.217E-01 -.424E-01
   0.549E+02 0.706E+01 0.487E+02   -.597E+02 -.648E+01 -.517E+02   0.484E+01 -.520E+00 0.291E+01   0.955E-02 -.724E-03 0.172E-02
   -.417E+02 0.978E+01 0.618E+02   0.460E+02 -.927E+01 -.655E+02   -.420E+01 -.545E+00 0.370E+01   -.754E-02 0.138E-02 0.417E-02
   0.327E+01 0.693E+02 -.415E+01   -.314E+01 -.746E+02 0.611E+01   -.225E+00 0.531E+01 -.195E+01   -.967E-03 0.809E-02 -.874E-03
   0.358E+02 -.377E+02 0.519E+02   -.393E+02 0.395E+02 -.559E+02   0.356E+01 -.186E+01 0.398E+01   0.704E-02 -.374E-02 0.509E-02
   0.682E+02 -.735E+01 -.348E+02   -.733E+02 0.787E+01 0.371E+02   0.508E+01 -.574E+00 -.233E+01   0.331E-01 -.263E-02 -.101E-01
   -.585E+02 -.175E+02 0.365E+02   0.636E+02 0.172E+02 -.388E+02   -.511E+01 0.299E+00 0.233E+01   -.138E-01 0.224E-03 0.414E-02
   -.485E+01 0.637E+02 -.346E+02   0.444E+01 -.693E+02 0.357E+02   0.362E+00 0.556E+01 -.107E+01   -.424E-02 0.101E-01 0.658E-03
   -.365E+01 -.596E+02 -.387E+02   0.388E+01 0.636E+02 0.427E+02   -.263E+00 -.396E+01 -.404E+01   -.851E-03 -.774E-02 -.349E-02
   -.676E+02 -.427E+01 -.586E+01   0.730E+02 0.528E+01 0.441E+01   -.534E+01 -.107E+01 0.141E+01   -.190E-01 0.145E-03 0.408E-02
   0.310E+01 -.233E+02 -.755E+02   -.406E+01 0.261E+02 0.803E+02   0.997E+00 -.271E+01 -.488E+01   -.132E-02 -.320E-02 -.553E-02
 -----------------------------------------------------------------------------------------------
   -.542E+00 -.197E+00 0.292E+00   0.302E-13 0.320E-13 0.142E-13   0.568E+00 0.184E+00 -.321E+00   -.302E-01 0.117E-01 0.319E-01
 
 
 POSITION                                       TOTAL-FORCE (eV/Angst)
 -----------------------------------------------------------------------------------
      5.93600      3.68547      9.32959         0.077275     -0.011962     -0.011528
      6.45914      6.09259      9.90174        -0.065846      0.013892      0.024363
      6.04383      4.72332     10.46110         0.066204      0.017824     -0.005765
      7.02101      4.28061     11.56550         0.011279      0.001891     -0.021065
      5.00167      3.79573      8.77148         0.020015      0.053727     -0.029477
      6.76017      3.79810      8.61597         0.028659     -0.037927      0.027340
      5.97690      2.66271      9.71650        -0.087141      0.009874      0.004846
      5.76418      6.44381      9.13212        -0.007448     -0.002156      0.015232
      5.04984      4.83289     10.91760         0.002685     -0.062726      0.003069
      7.45496      6.02383      9.44970        -0.009570      0.014026     -0.024863
      6.94259      3.20858     11.76750        -0.047652      0.003354      0.045663
      6.50677      6.85140     10.68900        -0.033580      0.005977      0.013346
      8.05830      4.48960     11.28050         0.006296     -0.059610     -0.030890
      6.82463      4.81137     12.50170         0.038825      0.053815     -0.010271
 -----------------------------------------------------------------------------------
    total drift:                               -0.003643     -0.001320      0.003658


--------------------------------------------------------------------------------------------------------



  FREE ENERGIE OF THE ION-ELECTRON SYSTEM (eV)
  ---------------------------------------------------
  free  energy   TOTEN  =       -77.81315499 eV

  energy  without entropy=      -77.81315499  energy(sigma->0) =      -77.81315499
 


--------------------------------------------------------------------------------------------------------


 BEEFens 2000 ensemble energies
             -0.213385082797204E+02
             -0.517233730164932E-01
             -0.445617314382790E+01
              0.143770770991230E+02
             -0.744472632201614E+01
             -0.572995163645967E+01
             -0.150617095665268E+02
             -0.314626339331594E+02
             -0.128963811387052E+02
             -0.138096917165588E+02
             -0.109552991888957E+02
              0.951072277650979E+00
              0.653608295014592E+00
              0.330500502406451E+00
              0.114209958420039E+01
              0.157697919137415E+02
             -0.742000493567378E+01
             -0.482518805322606E+01
              0.735989654962194E+01
             -0.375111738062501E+02
              0.177215558851154E+02
             -0.740652926780697E+01
             -0.203633936841116E+01
             -0.350540047611024E+01
              0.408038950432399E-02
             -0.183968265848939E+01
              0.304453713052724E+02
             -0.642233038103309E+01
             -0.290584610058872E+01
             -0.179425000776024E+02
              0.249113986633274E+02
             -0.301833503013089E+01
             -0.136398639246503E+02
              0.632590886575248E+01
             -0.930355066776766E+00
              0.779222125780621E+01
             -0.672065494768177E+00
              0.121367728012451E+01
              0.115248479847389E+02
             -0.343910508452873E+02
              0.193560340217681E+02
              0.398303953111005E+01
             -0.286886835813445E+01
             -0.101337779002556E+02
              0.433112750343417E+01
             -0.511666509807964E+01
              0.158314493984663E+02
              0.118846639299408E+02
             -0.815407249992865E+01
             -0.961344774264788E+01
             -0.102137282444670E+02
             -0.127447131720188E+02
              0.725500751893217E+01
             -0.172546688731119E+02
              0.488056688152042E+01
              0.202853722267706E+02
              0.232698210481913E+02
              0.113409808177105E+02
              0.609051629831807E+01
              0.104423753780822E+02
              0.312306039632858E+02
              0.647538954970175E+01
             -0.187374179538509E+02
             -0.437505629400260E+01
             -0.972863555358765E+01
              0.209044301130617E+02
             -0.256480071515991E+02
             -0.208739167169005E+02
             -0.107592973758034E+02
             -0.485040310242189E+01
             -0.137898649687210E+02
              0.961709438413158E+01
              0.449457618121161E+01
              0.408970965458499E+01
             -0.135209525275418E+02
             -0.116471251584366E+02
             -0.189317556883941E+02
              0.117886942976259E+02
             -0.106656187913728E+02
              0.107139844176012E+02
             -0.277907037085112E+01
             -0.104428561230326E+02
             -0.175382480941991E+02
             -0.481658041991732E+01
             -0.454373585360013E+01
             -0.455574662805259E+01
              0.141151331870429E+02
              0.246843674548456E+02
             -0.138068762426518E+02
             -0.264630420785679E+02
             -0.661501702361414E+01
              0.371287874620276E+02
             -0.195544084347983E+02
              0.108891533195014E+02
             -0.285086963464441E+01
             -0.211907957576828E+02
              0.942233555294728E+01
              0.113078329080146E+02
             -0.498657356653945E+01
              0.106568882593107E+02
             -0.912391636523157E+01
             -0.184648543007002E+02
              0.321270058322399E+02
              0.147283857289936E+02
              0.879508309662140E+01
              0.338178758402876E+01
              0.609664631273909E+01
              0.278044121181246E+02
             -0.956490887756289E+01
              0.140481369406880E+01
             -0.473546489083097E+02
              0.699371007297403E+01
             -0.229534259498856E+02
              0.443998622404745E+01
              0.706505522816291E+01
             -0.114638882577247E+02
             -0.177504199042024E+02
              0.948883423142064E+00
             -0.102745149568683E+02
              0.132647382648006E+02
             -0.154744795171710E+02
             -0.181985461982501E+01
             -0.126239043563349E+02
             -0.511739395903575E+00
              0.693255081674145E+00
              0.671788911837290E+01
              0.722675435931990E-01
             -0.230943426631473E+01
              0.215460996668764E+02
              0.306978452357927E+02
              0.164834895977278E+02
              0.241964162516269E+02
             -0.484065363303294E+01
              0.230725091574678E+01
              0.176844107050051E+02
             -0.109279877255092E+00
             -0.255669644274863E+02
             -0.144756436590561E+02
             -0.167954553678342E+02
             -0.987891869277691E+01
              0.928006488879026E+01
             -0.398335634484157E+02
             -0.450218735107185E+01
              0.142534065632323E+02
             -0.138214635081622E+02
             -0.107491827708469E+02
              0.183598895164576E+02
              0.157892943357094E+02
             -0.104803683652589E+02
              0.892899634199921E+01
             -0.919882398847819E+01
              0.127481910956741E+02
              0.251834454685290E+01
              0.490307276968607E+01
             -0.284910189195819E+02
             -0.160867441703409E+02
             -0.395118707087616E+01
             -0.149052017567419E+01
             -0.136502087970621E+02
              0.366596497741338E+02
             -0.508980739116572E+01
             -0.107624413315848E+02
              0.137528406830924E+02
             -0.155326158296049E+02
             -0.124891113688387E+02
              0.999965065451339E+01
              0.365762929529672E+01
              0.381106252525448E+01
              0.445979525465653E+01
             -0.401998397844872E+01
              0.461485936329591E+01
              0.199538369369313E+02
             -0.993655398081291E+01
              0.632738298338229E+01
              0.306695350891218E+02
              0.106757624590120E+02
             -0.152856806208459E+01
             -0.600984577222589E+01
              0.513001006282022E+02
             -0.768414553667217E+01
              0.130483755159540E+02
              0.923214489670364E+01
              0.103990647073768E+02
              0.313148516011712E+02
              0.159883345758912E+02
             -0.116407615713382E+01
              0.762790725461250E+01
              0.170634904253990E+02
              0.122854813226667E+02
             -0.202168689056228E+02
              0.317000988927536E+02
             -0.298117825119483E+02
             -0.469790441064043E+01
              0.188981147062494E+02
              0.371759872215166E+01
              0.104873197561331E+01
              0.104223393466291E+02
              0.661234304819577E+01
              0.111352803923203E+02
             -0.206743449753542E+02
              0.886985177916742E+00
             -0.840881940324670E+01
             -0.142312257992921E+01
              0.156679951401344E+00
             -0.393043890570192E+01
             -0.192885904392165E+01
              0.291166948468160E+02
             -0.177256893566069E+01
             -0.988071799404055E+01
             -0.918711916566743E+00
              0.472621914679877E+01
             -0.202540553576355E+02
             -0.162567881843625E+02
             -0.113711227101340E+02
             -0.208431552413952E+02
             -0.564161412329591E+01
             -0.142735181400297E+02
              0.582673832018830E+01
             -0.239252538106541E+00
             -0.450127135199306E+01
             -0.306489348184125E+01
              0.236497725790464E+01
             -0.699421082015455E+01
              0.218837031904330E+02
             -0.290438970326587E+02
             -0.389151694390919E+01
             -0.529064549019629E+01
              0.580164272573455E+01
              0.650752369880176E+01
             -0.160459176140166E+02
             -0.485603362714137E+01
              0.154236482045191E+02
             -0.830777488624086E+01
              0.479518173985945E+01
              0.123064139976968E+02
              0.553267145890217E-01
              0.383131704603356E+02
             -0.481769430822949E+01
             -0.122943229662914E+02
              0.313433081559950E+00
             -0.950085792382073E+01
              0.169510160051905E+02
             -0.151905559537733E+02
              0.468478193660115E+01
              0.175742388632073E+02
             -0.495424726735543E+01
              0.395801193002002E+02
              0.424996449304592E+02
             -0.239143122494416E+02
              0.194494938169623E+02
              0.685422545330680E+01
             -0.181874849680350E+02
              0.729492585437647E+01
              0.138863938360295E+02
              0.145410281784811E+02
              0.110463430924993E+01
              0.658022153964936E+01
              0.246977517888109E+02
             -0.794176556647031E+01
              0.367934743998678E+01
              0.227188514594460E+02
             -0.118214639443185E+02
             -0.680687453087593E+01
              0.192724316764884E+02
              0.104236337753962E+02
              0.256807933036435E+02
              0.101751730981918E+02
              0.431662863450703E+01
              0.837109113120984E+01
              0.142410963532779E+02
             -0.166110258122509E+02
              0.184664369936488E+01
              0.713182760491563E+01
              0.275557948129011E+01
              0.804250849363989E+01
             -0.209923943870382E+02
              0.113126312081195E+02
             -0.141682540688100E+02
             -0.112393639438840E+02
              0.639334695420193E+01
             -0.432122219555735E+01
              0.194675061947630E+02
             -0.660249552003328E+01
              0.928290838064837E+01
              0.102073028478634E+02
              0.267351848844662E+02
              0.183125175030926E+02
              0.174435592224418E+02
             -0.266496060844833E+01
             -0.241794827087030E+01
             -0.109976125440867E+02
              0.267248432420789E+02
              0.273374855415749E+02
              0.125339913945196E+02
             -0.843237829780539E+01
              0.166193199503860E+02
             -0.235682511464430E+01
              0.696567166619645E+01
              0.224627016087535E+02
             -0.112859376371221E+01
             -0.389934831452555E+01
             -0.866890590647535E+01
             -0.196460352670735E+02
              0.323430120152353E+02
              0.163300664307065E+02
             -0.210247161558001E+02
             -0.573296454826398E+01
              0.799810032282952E+01
             -0.440003507317997E+01
              0.207307632782199E+02
              0.561307621572804E+01
              0.261995139927448E+02
              0.918802438437216E+01
             -0.777335505708967E+01
              0.641091798177533E+01
             -0.228605178976481E+01
             -0.867098396954710E+01
              0.550740230221356E+01
              0.646675209983817E+01
              0.303928619968595E+02
              0.253634439812023E+02
              0.193887256858378E+02
              0.235999769176364E+02
              0.317961984535831E+01
             -0.945067813759486E+01
              0.432555829035970E+01
             -0.117681728365930E+02
             -0.177014414670310E+02
             -0.190378029762136E+02
             -0.105340809802403E+02
             -0.369179235236022E+02
             -0.116851133739695E+02
             -0.286147493766128E+02
              0.638485973551672E+01
             -0.158254028508388E+02
              0.158994197372568E+02
             -0.319377367447898E+02
             -0.101929822528401E+02
              0.151081640001418E+02
              0.678585588219751E+01
             -0.290217545971875E+02
              0.181816939351650E+02
             -0.970132766990761E+01
              0.180593244773086E+02
             -0.928784005136650E+01
             -0.254551904277191E+02
              0.534466844382928E+01
             -0.209396503779820E+02
             -0.284003220781263E+01
             -0.372452250818288E+00
              0.141154863451785E+02
              0.421729404552169E+02
             -0.150388405143549E+02
             -0.125177047190339E+02
             -0.233194345835638E+01
             -0.334757808686980E+01
             -0.267642753528705E+02
             -0.201413783530333E+02
              0.176351092359204E+02
             -0.740863956855396E+01
              0.617491457596928E+01
             -0.161152405706783E+02
             -0.450665077506672E+01
             -0.146093615675506E+02
              0.166009133773428E+02
              0.458710880053192E+01
             -0.810869182474424E+01
             -0.481988661792004E+01
              0.346868514077723E+01
             -0.263953503503531E+01
              0.130883410281505E+02
             -0.892125857093534E+01
              0.296965591074159E+01
              0.113532069802843E+02
              0.446317107841412E+01
             -0.727479191238447E+01
              0.522550719558590E+02
              0.193431129093346E+02
              0.218808817593007E+01
              0.260103177932712E+01
             -0.205845625909498E+02
              0.107566963290845E+02
             -0.246271194550156E+02
             -0.106129557205722E+02
             -0.194724292226108E+02
             -0.640428230045856E+01
              0.199090013847848E+02
             -0.192040235027910E+02
              0.735316621506519E+01
             -0.159370274857417E+01
              0.617977484758381E+00
             -0.117524846122995E+02
             -0.145127491138681E+02
             -0.215175713712880E+01
             -0.124745046076443E+02
             -0.761828227184819E+01
             -0.129176915063309E+02
             -0.236488518327925E+01
             -0.108587693999602E+02
             -0.166325118848010E+02
              0.805495682909520E+01
             -0.505065069147539E+01
              0.728529056896703E+01
              0.380265860842176E+01
             -0.251740828894778E+02
             -0.178458391749414E+02
             -0.160952278077031E+02
              0.115489746085292E+02
             -0.105739345163604E+01
             -0.209688867997536E+02
              0.194430382041486E+02
             -0.144344863526304E+02
              0.183433491973787E+02
             -0.103302533197784E+02
             -0.158599195779308E+02
              0.866747409490503E+01
             -0.234915704559113E+02
             -0.115093812468097E+02
              0.218854435159437E+02
              0.752397739071479E+01
             -0.131995884689130E+02
              0.185047016705897E+02
             -0.592466271764603E+01
             -0.118270876912741E+02
             -0.102909902905079E+02
             -0.176429913912681E+02
              0.878244598364596E+01
             -0.307066415904478E+02
             -0.268306653300245E+02
             -0.250595722442172E+01
             -0.997557385022169E+01
             -0.206132217934612E+02
              0.246193774766045E+02
              0.456024790288742E+02
             -0.922577479869970E+01
             -0.547695542759016E+00
             -0.216072497048937E+02
              0.216920589031718E+02
              0.698554015732145E+01
             -0.654611074092927E+01
             -0.132979628218775E+02
              0.443068443543364E+01
             -0.200255313430787E+02
             -0.446502235284839E+01
             -0.298827001364248E+02
              0.107817772069697E+02
              0.552540215758307E+01
             -0.729294767940814E+00
             -0.320818001877500E+01
             -0.128821009662225E+02
             -0.407724532371293E+01
              0.453472152366067E+02
             -0.544938133556175E+01
             -0.160627605921472E+02
             -0.228463718407920E+02
              0.464725814655246E+01
             -0.122172743391498E+02
              0.228788612732126E+01
              0.102391281775528E+02
              0.250575997694214E+01
              0.119202337920703E+02
              0.577200056478070E+01
              0.203928479768846E+02
              0.960812615928488E+01
             -0.116079729568335E+02
              0.156957476550940E+02
              0.123673634002140E+02
              0.429818989303534E+01
              0.144122373695541E+02
             -0.879653842041754E+01
              0.242022914072197E+02
              0.734158779838200E+01
             -0.105393851855290E+02
             -0.302437670099574E+01
             -0.583581559046233E+01
              0.644192259932215E+01
             -0.851292186217090E+01
             -0.245184125583094E+01
             -0.399758920146034E+01
              0.266337437451807E+02
              0.189523625555093E+02
             -0.228106801322926E+02
             -0.219865945061770E+01
             -0.179371635940579E+02
             -0.425563043971480E+01
             -0.868064190147630E+01
              0.254947926252123E+01
             -0.779550080823372E+00
             -0.927894169723050E+01
              0.406933045495420E+01
             -0.232046637655781E+01
             -0.365962731376454E+01
              0.286989758171377E+02
              0.555443826540318E+01
             -0.278745441164476E+02
             -0.146174115280918E+02
              0.320344947710407E+02
              0.815970727071368E+01
             -0.302774928846658E+01
              0.368491732897324E+02
             -0.590028857078278E+01
             -0.300335052215968E+01
             -0.376517738285854E+01
              0.510146329107206E+01
              0.102261400878766E+02
              0.170677734588766E+01
              0.999192267820275E+01
             -0.459917411081010E+01
             -0.121386929080402E+02
             -0.130941914084266E+02
             -0.166015638587592E+02
              0.149806408101104E+02
              0.513680882672085E+01
              0.130439411534892E+02
              0.551894601246144E+01
              0.297593198496536E+02
              0.549051451812394E+01
             -0.259778087366350E+02
             -0.112974151019111E+02
              0.244731974404612E+01
             -0.956058838213455E+01
              0.209984985596944E+02
             -0.443136211222787E+01
              0.477235284672245E+01
              0.177368708146647E+02
             -0.258218630292196E+02
              0.500422985893739E+02
              0.727134205442360E+01
              0.840904306150458E+01
              0.127360421169291E+02
              0.251281967488126E+01
             -0.102458123152726E+01
              0.109475334313725E+02
             -0.123122189954080E+02
              0.276957616199920E+02
              0.249377527684669E+02
             -0.129569231586742E+02
              0.673523107959043E+01
              0.235097382148992E+02
             -0.736055571554980E+01
              0.612019267480603E+01
              0.123856175772585E+02
              0.145186894727239E+02
             -0.254452580300744E+02
             -0.337505531224858E+01
             -0.995675188324675E+01
             -0.207213725685530E+01
             -0.319014663579832E+01
              0.117100086182947E+01
             -0.577125608700995E+01
             -0.101931435311656E+02
              0.480382126880426E+01
              0.301314526102115E+01
              0.183077032467815E+02
             -0.144002236065091E+02
              0.142894307583986E+02
              0.167766898006409E+02
             -0.397071070359404E+01
              0.259484670771922E+02
             -0.226911341733157E+02
             -0.344818340528511E+02
             -0.170901834396420E+01
             -0.182280207803935E+01
              0.153855445597354E+01
              0.260905520346784E+02
[...]
              0.245943681039782E+02
              0.326691111776724E+02
              0.198176526894704E+02
              0.142920112830182E+02
             -0.207409373136510E+02
             -0.152842890739783E+02
              0.110822798225592E+02
              0.162446543090061E+01
              0.107438816321650E+02
              0.441822498539906E+01
              0.213935521435559E+02
             -0.264804290967728E+02
             -0.164104071681911E+02
             -0.360247629146970E+01
             -0.283470824153430E+02
              0.544087693292330E+01
              0.138970366748215E+02
              0.221765166559574E+01
             -0.752811342588200E+01
              0.778264182081905E+01
              0.457814412454177E+02
              0.101943922274958E+02
              0.525940525784918E+01
             -0.158509714049562E+02
             -0.204204540825632E+02
             -0.617181247927184E+01
              0.102642119262559E+02
             -0.200579848820998E+01
              0.829635541966932E+01
              0.117265792535354E+02
             -0.204644711093798E+02
              0.882667712084906E+01
              0.144325271624872E+02
              0.187550314663803E+02
             -0.276038716742824E+01
              0.281425409817572E+00
             -0.279607047494594E+01
             -0.156881190663245E+02
             -0.246919448788763E+02
              0.259153212088338E+02
             -0.249193083650236E+01
             -0.186994102701444E+02
              0.144368934258142E+01
             -0.918892432329664E+01
              0.299588634795631E+02
             -0.696789527888933E+01
             -0.123732265196206E+02
              0.124979854393333E+02
             -0.478355289530981E+01
              0.146936598106894E+02
              0.621461524940401E+00
              0.322684696488281E+02
              0.161233092473544E+02
              0.134950233273730E+01
             -0.120703636822136E+02
              0.887896182788587E+01
             -0.181194466973376E+02
             -0.228032346417998E+01
              0.214668918273594E+02
             -0.910448908584036E+01
             -0.143442734880158E+02
             -0.713721271930707E+01
              0.172759291430597E+02
              0.338530309479956E+01
             -0.282217904244749E+02
              0.118920605160422E+02
              0.396402223307088E+01
              0.347950996052367E+01
             -0.167800996648023E+02
              0.182552244609033E+01
              0.111370127373223E+02
              0.164807027558333E+02
              0.211627102978843E+02
              0.106055308837886E+02
              0.121653651313740E+01
             -0.179096369200509E+02
             -0.152743997382947E+02
             -0.231825209334086E+02
             -0.371471145288830E+01
              0.116786099085871E+02
             -0.163985979505576E+01
              0.179117861897388E+02
             -0.108705231497925E+02
              0.531680525103133E+01
             -0.658295071908426E+01
             -0.923635317481214E+01
              0.195183764786578E+02
              0.203847542693025E+01
              0.204850155567909E+02
              0.198431824054914E+01
              0.808472843243603E+01
             -0.480265802857112E+01
              0.194043968685984E+02
             -0.465768038093134E+01
             -0.387183736642429E-01
             -0.263915572550080E+02
             -0.346944930445682E+01
              0.235671166308134E+02
              0.227910699653191E+02
              0.752709343695167E+01
             -0.368882679428313E+01
              0.115883299083502E+01
             -0.685125882282346E+01
             -0.350225630734373E+01
              0.298028433981369E+02
              0.157935168591368E+01
             -0.804803980815957E+01
             -0.365003909481173E+02
             -0.164303346021887E+02
             -0.126650060686677E+02
             -0.207400922699563E+02
             -0.203539432313226E+02
             -0.239686520719606E+02
             -0.152723933037018E+02
             -0.112996951590442E+02
             -0.148816336476135E+02
              0.157411760998301E+02
             -0.786419254848218E+01
             -0.313345647184551E+02
              0.148843557199582E+02
             -0.110102580092175E+02
             -0.258336426729806E+02
              0.335040312568243E+02
             -0.825241264139965E+01
              0.606516559674735E+01
              0.142421623923150E+02
              0.312374476291707E+01
              0.822028279557655E+01
              0.501308677854368E+00
              0.279728192417778E+00
             -0.489694664974555E+01
             -0.247992407531414E+02
              0.411852499159495E+01
             -0.417550576621916E+02
              0.230333843942403E+02
             -0.142233628726222E+02
             -0.540482664338921E+01
             -0.541409991150807E+01
              0.587035415080102E+01
             -0.685144934233126E+01
              0.989918221022985E+01
             -0.184502600177522E+02
              0.128821534268189E+02
              0.141345815746082E+02
              0.449249505468169E+01
              0.365560211372475E+01
              0.703822767800747E+01
              0.238888500746195E+01
              0.108920972202911E+02
             -0.219640144745730E+01
             -0.226259843479294E+02
              0.317666265183210E+01
             -0.953799215390109E+01
             -0.450629393300261E+00
              0.182238873298930E+02
             -0.280128711581979E+02
              0.773793376800491E+00
              0.305870169613257E+00
              0.328330417582502E+01
              0.102614120040719E+02
             -0.476941175327336E+01
              0.282052494167278E+02
              0.138388979742044E+02
             -0.501625060880411E+01
             -0.317932356604543E+01
              0.136484191338048E+01
              0.263907810283288E+02
             -0.172475921490560E+02
             -0.347627051757287E+02
              0.104374696331372E+02
             -0.330857408905985E+01
             -0.578053582035514E+01
              0.540907067550062E+01
              0.256515924718255E+02
              0.145688498830777E+02
             -0.558617231967258E+01
             -0.180709300632194E+02
             -0.355460100409260E+01
              0.978336862474409E+01
             -0.524341967674761E+01
             -0.252574504853227E+02
             -0.242558964596697E+01
             -0.315399210736977E+02
             -0.161370124264459E+02
              0.282142501080996E+02
             -0.169197363504149E+02
             -0.230167790395423E+02
             -0.185536788260871E+02
             -0.128414588298871E+02
              0.118246473539448E+02
              0.279324516920594E+02
             -0.256692670526994E+01
              0.934313222545590E+01
             -0.605408167707698E+01
             -0.225331068857731E+02
              0.182286951589697E+02
             -0.159203376141405E+02
              0.100565746412207E+02
              0.101135127058969E+02
             -0.411296266914839E+01
              0.131081879693629E+02
              0.134642925942420E+02
              0.380044873272132E+02
             -0.450056757033359E+01
             -0.176133669276818E+02
             -0.217356101797509E+02
             -0.456962192502361E+01
             -0.117549749704090E+02
              0.335506716129216E+02
             -0.164865553330013E+02
              0.276601738174705E+01
              0.174920448985750E+01
             -0.740204543051213E+01
             -0.280524932287168E+02
             -0.274977829046544E+01
              0.335426204181908E+02
              0.553235521844039E+01
              0.263842310313289E+01
             -0.181948472693636E+02
             -0.179030583039680E+02
             -0.406091461656707E+01
              0.157951341824705E+02
             -0.879136343012934E+01
              0.346440573115673E+02
             -0.156874340275261E+02
              0.506461498370917E+01
             -0.601155772034377E+01
             -0.217748197207266E+02
              0.178981500022642E+01
             -0.188695832667977E+02
             -0.248141258046449E+02
              0.242396287175310E+01
              0.340546526458251E+00
              0.163008169787088E+02
              0.785178266084543E+01
             -0.119555593831959E+02
              0.820155499298833E+01
             -0.285262137690029E+02
             -0.163854685800586E+02
              0.316489446117408E+02
              0.160384360367057E+01
             -0.384578650781404E+01
             -0.935609574645563E+01
              0.234742921661422E-01
             -0.267840755051425E+01
              0.304106794051218E+02
              0.144045987816877E+02
             -0.362531577518938E+01
             -0.223360222167487E+01
             -0.136653085200292E+02
             -0.494423248271912E+01
             -0.212208671270633E+02
              0.173862205471477E+02
              0.220135838533998E+01
              0.385332747786796E+01
              0.524027818222094E+01
             -0.306907343040276E+01
             -0.695434890216834E+01
              0.520575705739461E+00
             -0.356310749434695E+02
             -0.546602097721036E+01
             -0.314340371310360E+01
             -0.254295228832979E+01
              0.171828542756839E+02
              0.215397271905388E+02
              0.557619633113676E+01
             -0.317325263809545E+02
              0.216868959221359E+02
             -0.839756271453737E+01
             -0.122976377228948E+02
             -0.291929614774860E+02
             -0.114350117577460E+02
              0.197651058893551E+02
              0.109890906812363E+02
              0.530942386526158E+01
              0.109818388764606E+02
             -0.185913824579893E+02
             -0.151975606893424E+02
              0.205472255675712E+02
              0.138299332707176E+02
              0.164511891834379E+02
              0.143269876998048E+01
              0.370245588600702E+01
              0.181990763635893E+02
              0.331400472653016E+02
             -0.814511622090857E+01
              0.125768318477406E+02
             -0.689637474588801E+01
             -0.145006256094098E+02
             -0.114668556520907E+02
             -0.106022731271130E+02
             -0.429353743280171E+01
             -0.161285220721284E+02
             -0.707198722433217E+01
             -0.451102864211508E+02
              0.120823935157722E+02
              0.880449645278041E+01
             -0.803599278338851E+00
             -0.121896079678033E+02
             -0.594009400532478E+01
             -0.185197937798922E+02
              0.372798542639495E+01
              0.271120318750967E+02
             -0.686010870880175E+01
             -0.625222867952672E+01
              0.643940196236166E+01
             -0.173202614844137E+02
              0.300621401608286E+02
              0.550289114797974E+01
              0.382269296784027E+01
              0.171336005408209E+02
             -0.127188147216346E+01
              0.193778813070360E+02
              0.579580855116770E+01
             -0.227668708083098E+01
              0.377572495048837E+01
             -0.252404538057965E+01
              0.242884283770301E+02
              0.309434612533727E+01
              0.611823654455502E+01
             -0.378035213731380E+01
              0.365754325054322E+01
             -0.311498885262298E+02
             -0.117564667907753E+02
             -0.160232130216984E+02
              0.171748947008997E+02
             -0.116001003304127E+02
             -0.202299194437858E+02
              0.189186295849842E+02
             -0.460533690338172E+01
              0.149863653010151E+02
             -0.301302625034463E+02
              0.740573016036009E+01
              0.146814618438552E+01
              0.180069932445087E+01
             -0.384858440031340E+01
             -0.238058442928030E+01
              0.165573821334913E+02
              0.861555477695070E+00
             -0.162713203324513E+02
             -0.745461134002146E+01
              0.728764543269561E+01
             -0.404297787874659E+02
             -0.307490053388891E+02
              0.108435878906550E+01
              0.448214322993718E+01
             -0.164207611977035E+02
             -0.338972823800937E+00
              0.363589272587216E+02
              0.997302907889731E+01
             -0.189535700585128E+02
              0.248291685356724E+01
             -0.279336418016136E+01
              0.459043873013863E+01
             -0.117037772209548E+02
              0.737700050495487E+01
              0.829690899873759E+01
             -0.179063128394613E+01
              0.369373706975407E+02
             -0.350735993155781E+01
             -0.103240715927789E+02
              0.788208165296456E+01
              0.154857264611773E+02
             -0.119125604949899E+02
              0.258235490822258E-01
              0.334029929678565E+02
             -0.808466062401379E+00
              0.179011668424257E+02
              0.528713661163977E+01
             -0.244520369625525E+01
             -0.659313798054400E+01
              0.167541735125767E+02
             -0.185821053110409E+02
             -0.116434990266648E+01
             -0.631966156559133E+01
             -0.139148794715435E+02
              0.433720344133079E+01
              0.830673162115458E+01
              0.105885441089498E+01
             -0.707848281508234E+00
             -0.130094473602380E+02
              0.550980359058240E+01
             -0.149697136983204E+01
             -0.721650554298699E+01
             -0.695984524877032E+01
              0.632945030026839E+01
             -0.162148044668950E+01
             -0.126613645991134E+02
             -0.359963263211045E+02
              0.193371665771779E+01
              0.690916540758329E+01
             -0.140232890705398E+02
             -0.812201519536694E+01
              0.275194864913152E+02
              0.324012070580089E+01
              0.130408702873003E+02
              0.225199688541080E+01
              0.116036714192824E+02
              0.121259657562105E+01
             -0.133097935062671E+02
             -0.254486129442377E+01
              0.224403839899666E+01
              0.961311180385332E+01
              0.255208558051647E+02
              0.164904423364036E+02
              0.760662279761419E-01
              0.456351166961867E+01
              0.207547264544904E+02
              0.850219786598819E+01
             -0.249938386120442E+02
             -0.930630494326660E+01
              0.533239217544948E+01
              0.256972177928047E+01
              0.829381789387018E+01
             -0.180017468411681E+02
              0.141551770989615E+01
              0.133206338848121E+02
              0.164071015094722E+02
             -0.139089897302523E+02
             -0.768263090995760E+00
             -0.770000172078014E+00
             -0.610718571199392E+01
             -0.949876017666644E+01
             -0.506025203528958E+01
             -0.244989019369529E+01
              0.312828728206728E+01
              0.141630778516060E+02
             -0.974859660002003E+01
              0.280679085593030E+02
              0.104916979274649E+02
              0.815294449264471E+01
              0.129642613595977E+02
              0.967092182967631E+01
              0.117746269827828E+02
              0.185252117329088E+02
             -0.156484159141028E+02
              0.213495983649646E+02
             -0.385654020401709E+02
              0.105136314575529E+02
             -0.353322070829275E+02
              0.269665981489950E+02
              0.254439290704417E+02
             -0.285440975455238E+01
             -0.160148438605593E+02
             -0.147658664275325E+02
             -0.195744155812698E+02
             -0.222285269376574E+02
              0.179842413942311E+02
              0.142571742606376E+02
              0.757901992515374E+01
              0.108320887586256E+02
              0.135731757127282E+02
             -0.133532421648695E+02
             -0.516833193097502E+01
              0.194750219866378E+02
             -0.453900370437886E+01
              0.177419391361316E+02
              0.252743391055896E+02
             -0.168276221438265E+01
             -0.248626311211905E+02
              0.158963235534726E+01
              0.360969595645907E+00
             -0.306838845310227E+01
             -0.187279312450713E+00
             -0.221524402229695E+02
             -0.444167841064850E+01
              0.426063564346240E+01
              0.410617576750363E+01
              0.164997048833345E+02
             -0.135048440374197E+02
              0.199814584380572E+02
             -0.137101335207896E+02
              0.858424958497214E+01
              0.136847193585466E+02
 BEEF xc energy contributions
           1 :   -246.811359016066     
           2 :    206.349871449417     
           3 :   -151.070795286586     
           4 :    103.021386390139     
           5 :   -69.3179403800577     
           6 :    48.2638993889985     
           7 :   -35.6530219257341     
           8 :    27.8276536739289     
           9 :   -22.5461529217589     
          10 :    19.0006400269693     
          11 :   -16.6167223316419     
          12 :    14.5165578155279     
          13 :   -12.4071983447341     
          14 :    10.4835018170650     
          15 :   -8.81023717075665     
          16 :    7.38886293050090     
          17 :   -6.19448224251414     
          18 :    5.15532677873974     
          19 :   -4.16023167908119     
          20 :    3.24409007306672     
          21 :   -2.45658626516599     
          22 :    1.66051800645235     
          23 :  -0.813623579179497     
          24 :   2.013518031127912E-002
          25 :   0.637560021471726     
          26 :   -1.13678164969475     
          27 :    1.52278412817743     
          28 :   -1.85730703955408     
          29 :    2.17736431119806     
          30 :   -2.45576478400740     
          31 :   -37.1362101069287     
          32 :   -25.0513818017089     
    POTLOK:  cpu time   13.3041: real time   13.3799


--------------------------------------------------------------------------------------------------------


 stress matrix after NEB project (eV)
     -1.35573     -0.05970     -0.01497
     -0.05970     -1.24528      0.00199
     -0.01497      0.00199     -1.24900
  FORCES: max atom, RMS     0.087833    0.060634
  FORCE total and by dimension    0.226871    0.087141
  Stress total and by dimension    2.226279    1.355732
 writing wavefunctions
     LOOP+:  cpu time  123.0976: real time  123.9120
    4ORBIT:  cpu time    0.0000: real time    0.0000

 total amount of memory used by VASP MPI-rank0   137023. kBytes
=======================================================================

   base      :      30000. kBytes
   nonlr-proj:       2166. kBytes
   fftplans  :      62912. kBytes
   grid      :      34429. kBytes
   one-center:         21. kBytes
   wavefun   :       7495. kBytes
 
  
  
 General timing and accounting informations for this job:
 ========================================================
  
                  Total CPU time used (sec):      127.332
                            User time (sec):      124.727
                          System time (sec):        2.605
                         Elapsed time (sec):      129.118
  
                   Maximum memory used (kb):      487056.
                   Average memory used (kb):           0.
  
                          Minor page faults:       104847
                          Major page faults:            6
                 Voluntary context switches:         2598
