<?xml version="1.0" encoding="ISO-8859-1"?>
<modeling>
 <generator>
  <i name="program" type="string">vasp </i>
  <i name="version" type="string">5.4.4.18Apr17-6-g9f103f2a35  </i>
  <i name="subversion" type="string">(build Dec 31 2018 11:41:54) complex            parallel </i>
  <i name="platform" type="string">LinuxIFC </i>
  <i name="date" type="string">2022 11 04 </i>
  <i name="time" type="string">14:36:30 </i>
 </generator>
 <incar>
  <i type="int" name="ISTART">     1</i>
  <i type="string" name="PREC">acc</i>
  <i type="string" name="ALGO"> normal</i>
  <i type="logical" name="ADDGRID"> T  </i>
  <i type="int" name="ISPIN">     1</i>
  <i type="int" name="ICHARG">     2</i>
  <i type="int" name="NELM">   100</i>
  <i type="int" name="IBRION">    -1</i>
  <i name="EDIFF">      0.00100000</i>
  <i name="ENCUT">    400.00000000</i>
  <i type="string" name="LREAL"> Auto</i>
  <i type="int" name="ISMEAR">     0</i>
  <i name="SIGMA">      0.05000000</i>
  <i type="logical" name="LWAVE"> T  </i>
  <i type="logical" name="LCHARG"> F  </i>
  <i type="logical" name="LBEEFENS"> T  </i>
  <v type="int" name="KPOINT_BSE">    -1     0     0     0</v>
  <i type="int" name="NELM">   100</i>
  <i type="string" name="GGA"> BF</i>
  <i type="logical" name="LUSE_VDW"> T  </i>
  <i name="Zab_VDW">     -1.88670000</i>
 </incar>
 <structure name="primitive_cell" >
  <crystal>
   <varray name="basis" >
    <v>       8.31557575       0.00000000       0.00000000 </v>
    <v>       5.54371716       9.60199979       0.00000000 </v>
    <v>       0.00000000       0.00000000      26.78963917 </v>
   </varray>
   <i name="volume">   2139.04972377 </i>
   <varray name="rec_basis" >
    <v>       0.12025626      -0.06942998       0.00000000 </v>
    <v>       0.00000000       0.10414497       0.00000000 </v>
    <v>       0.00000000       0.00000000       0.03732786 </v>
   </varray>
  </crystal>
  <varray name="positions" >
   <v>       0.45795902       0.38382317       0.34825366 </v>
   <v>       0.33794464       0.39530619       0.32742061 </v>
   <v>      -0.46611229       0.27730786       0.36269619 </v>
   <v>      -0.45074928       0.39555302       0.32161575 </v>
   <v>       0.39886834       0.49191003       0.39049052 </v>
   <v>       0.27172739      -0.49667881       0.40753068 </v>
   <v>       0.35374358      -0.36548738       0.36961080 </v>
   <v>      -0.45288230       0.44580401       0.43171541 </v>
   <v>      -0.38788177       0.33415747       0.43925564 </v>
   <v>       0.24578509      -0.32890959       0.34088253 </v>
   <v>       0.47827117      -0.37264839       0.35273711 </v>
   <v>      -0.34265186       0.46756927       0.42107697 </v>
   <v>       0.48665112      -0.49892001       0.46666175 </v>
   <v>       0.30678722      -0.28646114       0.39899754 </v>
  </varray>
 </structure>
 <varray name="primitive_index" >
  <v type="int" >        1 </v>
  <v type="int" >        5 </v>
  <v type="int" >        7 </v>
  <v type="int" >        6 </v>
  <v type="int" >        3 </v>
  <v type="int" >        9 </v>
  <v type="int" >        2 </v>
  <v type="int" >        4 </v>
  <v type="int" >       11 </v>
  <v type="int" >        8 </v>
  <v type="int" >       10 </v>
  <v type="int" >       13 </v>
  <v type="int" >       14 </v>
  <v type="int" >       12 </v>
 </varray>
 <kpoints>
  <generation param="Monkhorst-Pack">
   <v type="int" name="divisions">       4        4        1 </v>
   <v name="usershift">      0.00000000       0.00000000       0.00000000 </v>
   <v name="genvec1">      0.25000000      -0.00000000       0.00000000 </v>
   <v name="genvec2">      0.00000000       0.25000000       0.00000000 </v>
   <v name="genvec3">      0.00000000       0.00000000       1.00000000 </v>
   <v name="shift">      0.50000000       0.50000000       0.00000000 </v>
  </generation>
  <varray name="kpointlist" >
   <v>       0.12500000       0.12500000       0.00000000 </v>
   <v>       0.37500000       0.12500000       0.00000000 </v>
   <v>      -0.37500000       0.12500000       0.00000000 </v>
   <v>      -0.12500000       0.12500000       0.00000000 </v>
   <v>       0.12500000       0.37500000       0.00000000 </v>
   <v>       0.37500000       0.37500000       0.00000000 </v>
   <v>      -0.37500000       0.37500000       0.00000000 </v>
   <v>      -0.12500000       0.37500000       0.00000000 </v>
  </varray>
  <varray name="weights" >
   <v>       0.12500000 </v>
   <v>       0.12500000 </v>
   <v>       0.12500000 </v>
   <v>       0.12500000 </v>
   <v>       0.12500000 </v>
   <v>       0.12500000 </v>
   <v>       0.12500000 </v>
   <v>       0.12500000 </v>
  </varray>
 </kpoints>
 <parameters>
  <separator name="general" >
   <i type="string" name="SYSTEM">unknown system</i>
   <i type="logical" name="LCOMPAT"> F  </i>
  </separator>
  <separator name="electronic" >
   <i type="string" name="PREC">acc</i>
   <i name="ENMAX">    400.00000000</i>
   <i name="ENAUG">    644.87300000</i>
   <i name="EDIFF">      0.00100000</i>
   <i type="int" name="IALGO">    38</i>
   <i type="int" name="IWAVPR">    10</i>
   <i type="int" name="NBANDS">    24</i>
   <i name="NELECT">     26.00000000</i>
   <i type="int" name="TURBO">     0</i>
   <i type="int" name="IRESTART">     0</i>
   <i type="int" name="NREBOOT">     0</i>
   <i type="int" name="NMIN">     0</i>
   <i name="EREF">      0.00000000</i>
   <separator name="electronic smearing" >
    <i type="int" name="ISMEAR">     0</i>
    <i name="SIGMA">      0.05000000</i>
    <i name="KSPACING">      0.50000000</i>
    <i type="logical" name="KGAMMA"> T  </i>
   </separator>
   <separator name="electronic projectors" >
    <i type="logical" name="LREAL"> T  </i>
    <v name="ROPT">     -0.00025000     -0.00025000</v>
    <i type="int" name="LMAXPAW">  -100</i>
    <i type="int" name="LMAXMIX">     2</i>
    <i type="logical" name="NLSPLINE"> F  </i>
   </separator>
   <separator name="electronic startup" >
    <i type="int" name="ISTART">     1</i>
    <i type="int" name="ICHARG">     2</i>
    <i type="int" name="INIWAV">     1</i>
   </separator>
   <separator name="electronic spin" >
    <i type="int" name="ISPIN">     1</i>
    <i type="logical" name="LNONCOLLINEAR"> F  </i>
    <v name="MAGMOM">      1.00000000      1.00000000      1.00000000      1.00000000      1.00000000      1.00000000      1.00000000      1.00000000      1.00000000      1.00000000      1.00000000      1.00000000      1.00000000      1.00000000</v>
    <i name="NUPDOWN">     -1.00000000</i>
    <i type="logical" name="LSORBIT"> F  </i>
    <v name="SAXIS">      0.00000000      0.00000000      1.00000000</v>
    <i type="logical" name="LSPIRAL"> F  </i>
    <v name="QSPIRAL">      0.00000000      0.00000000      0.00000000</v>
    <i type="logical" name="LZEROZ"> F  </i>
   </separator>
   <separator name="electronic exchange-correlation" >
    <i type="logical" name="LASPH"> F  </i>
    <i type="logical" name="LMETAGGA"> F  </i>
   </separator>
   <separator name="electronic convergence" >
    <i type="int" name="NELM">   100</i>
    <i type="int" name="NELMDL">     0</i>
    <i type="int" name="NELMIN">     2</i>
    <i name="ENINI">    400.00000000</i>
    <separator name="electronic convergence detail" >
     <i type="logical" name="LDIAG"> T  </i>
     <i type="logical" name="LSUBROT"> F  </i>
     <i name="WEIMIN">      0.00000000</i>
     <i name="EBREAK">      0.00001042</i>
     <i name="DEPER">      0.30000000</i>
     <i type="int" name="NRMM">     4</i>
     <i name="TIME">      0.40000000</i>
    </separator>
   </separator>
   <separator name="electronic mixer" >
    <i name="AMIX">      0.40000000</i>
    <i name="BMIX">      1.00000000</i>
    <i name="AMIN">      0.10000000</i>
    <i name="AMIX_MAG">      1.60000000</i>
    <i name="BMIX_MAG">      1.00000000</i>
    <separator name="electronic mixer details" >
     <i type="int" name="IMIX">     4</i>
     <i type="logical" name="MIXFIRST"> F  </i>
     <i type="int" name="MAXMIX">   -45</i>
     <i name="WC">    100.00000000</i>
     <i type="int" name="INIMIX">     1</i>
     <i type="int" name="MIXPRE">     1</i>
     <i type="int" name="MREMOVE">     5</i>
    </separator>
   </separator>
   <separator name="electronic dipolcorrection" >
    <i type="logical" name="LDIPOL"> F  </i>
    <i type="logical" name="LMONO"> F  </i>
    <i type="int" name="IDIPOL">     0</i>
    <i name="EPSILON">      1.00000000</i>
    <v name="DIPOL">   -100.00000000   -100.00000000   -100.00000000</v>
    <i name="EFIELD">      0.00000000</i>
   </separator>
  </separator>
  <separator name="grids" >
   <i type="int" name="NGX">    54</i>
   <i type="int" name="NGY">    72</i>
   <i type="int" name="NGZ">   180</i>
   <i type="int" name="NGXF">   108</i>
   <i type="int" name="NGYF">   144</i>
   <i type="int" name="NGZF">   360</i>
   <i type="logical" name="ADDGRID"> T  </i>
  </separator>
  <separator name="ionic" >
   <i type="int" name="NSW">     0</i>
   <i type="int" name="IBRION">    -1</i>
   <i type="int" name="MDALGO">     0</i>
   <i type="int" name="ISIF">     2</i>
   <i name="PSTRESS">      0.00000000</i>
   <i name="EDIFFG">      0.01000000</i>
   <i type="int" name="NFREE">     0</i>
   <i name="POTIM">      0.50000000</i>
   <i name="SMASS">     -3.00000000</i>
   <i name="SCALEE">      1.00000000</i>
  </separator>
  <separator name="ionic md" >
   <i name="TEBEG">      0.00010000</i>
   <i name="TEEND">      0.00010000</i>
   <i type="int" name="NBLOCK">     1</i>
   <i type="int" name="KBLOCK">     1</i>
   <i type="int" name="NPACO">   256</i>
   <i name="APACO">     16.00000000</i>
  </separator>
  <separator name="symmetry" >
   <i type="int" name="ISYM">     2</i>
   <i name="SYMPREC">      0.00001000</i>
  </separator>
  <separator name="dos" >
   <i type="int" name="LORBIT">     0</i>
   <v name="RWIGS">     -1.00000000     -1.00000000</v>
   <i type="int" name="NEDOS">   301</i>
   <i name="EMIN">     10.00000000</i>
   <i name="EMAX">    -10.00000000</i>
   <i name="EFERMI">      0.00000000</i>
  </separator>
  <separator name="writing" >
   <i type="int" name="NWRITE">     2</i>
   <i type="logical" name="LWAVE"> T  </i>
   <i type="logical" name="LDOWNSAMPLE"> F  </i>
   <i type="logical" name="LCHARG"> F  </i>
   <i type="logical" name="LPARD"> F  </i>
   <i type="logical" name="LVTOT"> F  </i>
   <i type="logical" name="LVHAR"> F  </i>
   <i type="logical" name="LELF"> F  </i>
   <i type="logical" name="LOPTICS"> F  </i>
   <v name="STM">      0.00000000      0.00000000      0.00000000      0.00000000      0.00000000      0.00000000      0.00000000</v>
  </separator>
  <separator name="performance" >
   <i type="int" name="NPAR">     8</i>
   <i type="int" name="NSIM">     4</i>
   <i type="int" name="NBLK">    -1</i>
   <i type="logical" name="LPLANE"> T  </i>
   <i type="logical" name="LSCALAPACK"> T  </i>
   <i type="logical" name="LSCAAWARE"> F  </i>
   <i type="logical" name="LSCALU"> F  </i>
   <i type="logical" name="LASYNC"> F  </i>
   <i type="logical" name="LORBITALREAL"> F  </i>
  </separator>
  <separator name="miscellaneous" >
   <i type="int" name="IDIOT">     3</i>
   <i type="int" name="ISPECIAL">     0</i>
   <i type="logical" name="LMUSIC"> F  </i>
   <v name="POMASS">     12.01100000      1.00000000</v>
   <v name="DARWINR">      0.00000000      0.00000000</v>
   <v name="DARWINV">      1.00000000      1.00000000</v>
   <i type="logical" name="LCORR"> T  </i>
  </separator>
  <i type="logical" name="GGA_COMPAT"> T  </i>
  <i type="logical" name="LBERRY"> F  </i>
  <i type="int" name="ICORELEVEL">     0</i>
  <i type="logical" name="LDAU"> F  </i>
  <i type="int" name="I_CONSTRAINED_M">     0</i>
  <separator name="electronic exchange-correlation" >
   <i type="string" name="GGA">BF</i>
   <i type="int" name="VOSKOWN">     0</i>
   <i type="logical" name="LHFCALC"> F  </i>
   <i type="string" name="PRECFOCK"></i>
   <i type="logical" name="LSYMGRAD"> F  </i>
   <i type="logical" name="LHFONE"> F  </i>
   <i type="logical" name="LRHFCALC"> F  </i>
   <i type="logical" name="LTHOMAS"> F  </i>
   <i type="logical" name="LMODELHF"> F  </i>
   <i name="ENCUT4O">     -1.00000000</i>
   <i type="int" name="EXXOEP">     0</i>
   <i type="int" name="FOURORBIT">     0</i>
   <i name="AEXX">      0.00000000</i>
   <i name="HFALPHA">      0.00000000</i>
   <i name="MCALPHA">      0.00000000</i>
   <i name="ALDAX">      1.00000000</i>
   <i name="AGGAX">      1.00000000</i>
   <i name="ALDAC">      1.00000000</i>
   <i name="AGGAC">      1.00000000</i>
   <i type="int" name="NKREDX">     1</i>
   <i type="int" name="NKREDY">     1</i>
   <i type="int" name="NKREDZ">     1</i>
   <i type="logical" name="SHIFTRED"> F  </i>
   <i type="logical" name="ODDONLY"> F  </i>
   <i type="logical" name="EVENONLY"> F  </i>
   <i type="int" name="LMAXFOCK">     0</i>
   <i type="int" name="NMAXFOCKAE">     0</i>
   <i type="logical" name="LFOCKAEDFT"> F  </i>
   <i name="HFSCREEN">      0.00000000</i>
   <i name="HFSCREENC">      0.00000000</i>
   <i type="int" name="NBANDSGWLOW">     0</i>
  </separator>
  <separator name="vdW DFT" >
   <i type="logical" name="LUSE_VDW"> T  </i>
   <i name="Zab_VDW">     -1.88670000</i>
   <i name="PARAM1">      0.12340000</i>
   <i name="PARAM2">      1.00000000</i>
   <i name="PARAM3">      0.00000000</i>
  </separator>
  <separator name="model GW" >
   <i type="int" name="MODEL_GW">     0</i>
   <i name="MODEL_EPS0">     91.67355959</i>
   <i name="MODEL_ALPHA">      1.00000000</i>
  </separator>
  <separator name="linear response parameters" >
   <i type="logical" name="LEPSILON"> F  </i>
   <i type="logical" name="LRPA"> F  </i>
   <i type="logical" name="LNABLA"> F  </i>
   <i type="logical" name="LVEL"> F  </i>
   <i type="int" name="KINTER">     0</i>
   <i name="CSHIFT">      0.10000000</i>
   <i name="OMEGAMAX">     -1.00000000</i>
   <i name="DEG_THRESHOLD">      0.00200000</i>
   <i name="RTIME">     -0.10000000</i>
   <i name="WPLASMAI">      0.00000000</i>
   <v name="DFIELD">      0.00000000      0.00000000      0.00000000</v>
   <v name="WPLASMA">      0.00000000      0.00000000      0.00000000      0.00000000      0.00000000      0.00000000      0.00000000      0.00000000      0.00000000</v>
  </separator>
  <separator name="orbital magnetization" >
   <i type="logical" name="NUCIND"> F  </i>
   <v name="MAGPOS">      0.00000000      0.00000000      0.00000000</v>
   <i type="logical" name="LNICSALL"> T  </i>
   <i type="logical" name="ORBITALMAG"> F  </i>
   <i type="logical" name="LMAGBLOCH"> F  </i>
   <i type="logical" name="LCHIMAG"> F  </i>
   <i type="logical" name="LGAUGE"> T  </i>
   <i type="int" name="MAGATOM">     0</i>
   <v name="MAGDIPOL">      0.00000000      0.00000000      0.00000000</v>
   <v name="AVECCONST">      0.00000000      0.00000000      0.00000000</v>
  </separator>
  <separator name="response functions" >
   <i type="logical" name="LADDER"> F  </i>
   <i type="logical" name="LRPAFORCE"> F  </i>
   <i type="logical" name="LFXC"> F  </i>
   <i type="logical" name="LHARTREE"> T  </i>
   <i type="int" name="IBSE">     0</i>
   <v type="int" name="KPOINT">    -1     0     0     0</v>
   <i type="logical" name="LTCTE"> F  </i>
   <i type="logical" name="LTETE"> F  </i>
   <i type="logical" name="LTRIPLET"> F  </i>
   <i type="logical" name="LFXCEPS"> F  </i>
   <i type="logical" name="LFXHEG"> F  </i>
   <i type="int" name="NATURALO">     2</i>
   <i type="logical" name="L2ORDER"> F  </i>
   <i type="logical" name="LMP2LT"> F  </i>
   <i type="logical" name="LUSEW"> F  </i>
   <i name="ENCUTGW">     -2.00000000</i>
   <i name="ENCUTGWSOFT">     -2.00000000</i>
   <i name="ENCUTLF">     -1.00000000</i>
   <i type="int" name="LMAXMP2">    -1</i>
   <i name="SCISSOR">      0.00000000</i>
   <i type="int" name="NOMEGA">     0</i>
   <i type="int" name="NOMEGAR">     0</i>
   <i type="int" name="NBANDSGW">    -1</i>
   <i type="int" name="NBANDSO">    -1</i>
   <i type="int" name="NBANDSV">    -1</i>
   <i type="int" name="NELM">   100</i>
   <i type="int" name="NELMHF">     1</i>
   <i type="int" name="DIM">     3</i>
   <i type="int" name="ANTIRES">     0</i>
   <i name="OMEGAMAX">    -30.00000000</i>
   <i name="OMEGAMIN">    -30.00000000</i>
   <i name="OMEGATL">   -200.00000000</i>
   <i type="int" name="OMEGAGRID">   140</i>
   <i name="CSHIFT">     -0.10000000</i>
   <i type="logical" name="SELFENERGY"> F  </i>
   <i type="logical" name="LSPECTRAL"> F  </i>
   <i type="logical" name="LSPECTRALGW"> F  </i>
   <i type="logical" name="LSINGLES"> F  </i>
   <i type="logical" name="LFERMIGW"> F  </i>
   <i type="logical" name="ODDONLYGW"> F  </i>
   <i type="logical" name="EVENONLYGW"> F  </i>
   <i type="int" name="NKREDLFX">     1</i>
   <i type="int" name="NKREDLFY">     1</i>
   <i type="int" name="NKREDLFZ">     1</i>
   <i type="int" name="MAXMEM">  2800</i>
   <i type="int" name="TELESCOPE">     0</i>
   <i type="int" name="TAUPAR">     1</i>
   <i type="int" name="OMEGAPAR">    -1</i>
   <i name="LAMBDA">      1.00000000</i>
  </separator>
  <separator name="External order field" >
   <i name="OFIELD_KAPPA">      0.00000000</i>
   <v name="OFIELD_K">      0.00000000      0.00000000      0.00000000</v>
   <i name="OFIELD_Q6_NEAR">      0.00000000</i>
   <i name="OFIELD_Q6_FAR">      0.00000000</i>
   <i name="OFIELD_A">      0.00000000</i>
  </separator>
 </parameters>
 <atominfo>
  <atoms>      14 </atoms>
  <types>       2 </types>
  <array name="atoms" >
   <dimension dim="1">ion</dimension>
   <field type="string">element</field>
   <field type="int">atomtype</field>
   <set>
    <rc><c>C </c><c>   1</c></rc>
    <rc><c>C </c><c>   1</c></rc>
    <rc><c>C </c><c>   1</c></rc>
    <rc><c>C </c><c>   1</c></rc>
    <rc><c>H </c><c>   2</c></rc>
    <rc><c>H </c><c>   2</c></rc>
    <rc><c>H </c><c>   2</c></rc>
    <rc><c>H </c><c>   2</c></rc>
    <rc><c>H </c><c>   2</c></rc>
    <rc><c>H </c><c>   2</c></rc>
    <rc><c>H </c><c>   2</c></rc>
    <rc><c>H </c><c>   2</c></rc>
    <rc><c>H </c><c>   2</c></rc>
    <rc><c>H </c><c>   2</c></rc>
   </set>
  </array>
  <array name="atomtypes" >
   <dimension dim="1">type</dimension>
   <field type="int">atomspertype</field>
   <field type="string">element</field>
   <field>mass</field>
   <field>valence</field>
   <field type="string">pseudopotential</field>
   <set>
    <rc><c>   4</c><c>C </c><c>     12.01100000</c><c>      4.00000000</c><c> PAW_PBE C 08Apr2002                    </c></rc>
    <rc><c>  10</c><c>H </c><c>      1.00000000</c><c>      1.00000000</c><c> PAW_PBE H 15Jun2001                    </c></rc>
   </set>
  </array>
 </atominfo>
 <structure name="initialpos" >
  <crystal>
   <varray name="basis" >
    <v>       8.31557575       0.00000000       0.00000000 </v>
    <v>       5.54371716       9.60199979       0.00000000 </v>
    <v>       0.00000000       0.00000000      26.78963917 </v>
   </varray>
   <i name="volume">   2139.04972377 </i>
   <varray name="rec_basis" >
    <v>       0.12025626      -0.06942998       0.00000000 </v>
    <v>       0.00000000       0.10414497       0.00000000 </v>
    <v>       0.00000000       0.00000000       0.03732786 </v>
   </varray>
  </crystal>
  <varray name="positions" >
   <v>       0.45795902       0.38382317       0.34825366 </v>
   <v>       0.35374358       0.63451262       0.36961080 </v>
   <v>       0.39886834       0.49191003       0.39049052 </v>
   <v>       0.54711770       0.44580401       0.43171541 </v>
   <v>       0.33794464       0.39530619       0.32742061 </v>
   <v>       0.54925072       0.39555302       0.32161575 </v>
   <v>       0.53388771       0.27730786       0.36269619 </v>
   <v>       0.24578509       0.67109041       0.34088253 </v>
   <v>       0.27172739       0.50332119       0.40753068 </v>
   <v>       0.47827117       0.62735161       0.35273711 </v>
   <v>       0.61211823       0.33415747       0.43925564 </v>
   <v>       0.30678722       0.71353886       0.39899754 </v>
   <v>       0.65734814       0.46756927       0.42107697 </v>
   <v>       0.48665112       0.50107999       0.46666175 </v>
  </varray>
 </structure>
 <calculation>
  <scstep>
   <time name="dav">    2.08    2.09</time>
   <time name="total">   12.34   12.41</time>
   <energy>
    <i name="alphaZ">      1.28650428 </i>
    <i name="ewald">   1748.95057127 </i>
    <i name="hartreedc">  -2185.94788997 </i>
    <i name="XCdc">     79.03090081 </i>
    <i name="pawpsdc">    152.91373464 </i>
    <i name="pawaedc">   -159.42092291 </i>
    <i name="eentropy">     -0.00000000 </i>
    <i name="bandstr">   -443.65461720 </i>
    <i name="atom">    720.17582891 </i>
    <i name="e_fr_energy">    -86.66589016 </i>
    <i name="e_wo_entrp">    -86.66589016 </i>
    <i name="e_0_energy">    -86.66589016 </i>
   </energy>
  </scstep>
  <scstep>
   <time name="dav">    1.79    1.80</time>
   <time name="total">   11.64   11.68</time>
   <energy>
    <i name="e_fr_energy">    -80.05968282 </i>
    <i name="e_wo_entrp">    -80.05968282 </i>
    <i name="e_0_energy">    -80.05968282 </i>
   </energy>
  </scstep>
  <scstep>
   <time name="dav">    1.77    1.77</time>
   <time name="total">   11.71   11.74</time>
   <energy>
    <i name="e_fr_energy">    -78.18979722 </i>
    <i name="e_wo_entrp">    -78.18979722 </i>
    <i name="e_0_energy">    -78.18979722 </i>
   </energy>
  </scstep>
  <scstep>
   <time name="dav">    1.81    1.82</time>
   <time name="total">   11.70   11.73</time>
   <energy>
    <i name="e_fr_energy">    -77.88272632 </i>
    <i name="e_wo_entrp">    -77.88272632 </i>
    <i name="e_0_energy">    -77.88272632 </i>
   </energy>
  </scstep>
  <scstep>
   <time name="dav">    1.82    1.82</time>
   <time name="total">   11.68   11.76</time>
   <energy>
    <i name="e_fr_energy">    -77.84799256 </i>
    <i name="e_wo_entrp">    -77.84799256 </i>
    <i name="e_0_energy">    -77.84799256 </i>
   </energy>
  </scstep>
  <scstep>
   <time name="dav">    1.81    1.81</time>
   <time name="total">   11.64   11.67</time>
   <energy>
    <i name="e_fr_energy">    -77.83316029 </i>
    <i name="e_wo_entrp">    -77.83316029 </i>
    <i name="e_0_energy">    -77.83316029 </i>
   </energy>
  </scstep>
  <scstep>
   <time name="dav">    1.59    1.60</time>
   <time name="total">   11.46   11.49</time>
   <energy>
    <i name="e_fr_energy">    -77.82432187 </i>
    <i name="e_wo_entrp">    -77.82432187 </i>
    <i name="e_0_energy">    -77.82432187 </i>
   </energy>
  </scstep>
  <scstep>
   <time name="dav">    1.68    1.68</time>
   <time name="total">   11.45   11.52</time>
   <energy>
    <i name="e_fr_energy">    -77.81324521 </i>
    <i name="e_wo_entrp">    -77.81324521 </i>
    <i name="e_0_energy">    -77.81324521 </i>
   </energy>
  </scstep>
  <scstep>
   <time name="dav">    1.69    1.69</time>
   <time name="total">   11.25   11.28</time>
   <energy>
    <i name="alphaZ">      1.28650428 </i>
    <i name="ewald">   1748.95057127 </i>
    <i name="hartreedc">  -2324.99745700 </i>
    <i name="XCdc">     86.58826657 </i>
    <i name="pawpsdc">    321.79573951 </i>
    <i name="pawaedc">   -328.44792558 </i>
    <i name="eentropy">     -0.00000000 </i>
    <i name="bandstr">   -303.16468294 </i>
    <i name="atom">    720.17582891 </i>
    <i name="e_fr_energy">    -77.81315499 </i>
    <i name="e_wo_entrp">    -77.81315499 </i>
    <i name="e_0_energy">    -77.81315499 </i>
   </energy>
  </scstep>
  <structure>
   <crystal>
    <varray name="basis" >
     <v>       8.31557575       0.00000000       0.00000000 </v>
     <v>       5.54371716       9.60199979       0.00000000 </v>
     <v>       0.00000000       0.00000000      26.78963917 </v>
    </varray>
    <i name="volume">   2139.04972377 </i>
    <varray name="rec_basis" >
     <v>       0.12025626      -0.06942998       0.00000000 </v>
     <v>       0.00000000       0.10414497       0.00000000 </v>
     <v>       0.00000000       0.00000000       0.03732786 </v>
    </varray>
   </crystal>
   <varray name="positions" >
    <v>       0.45795902       0.38382317       0.34825366 </v>
    <v>       0.35374358       0.63451262       0.36961080 </v>
    <v>       0.39886834       0.49191003       0.39049052 </v>
    <v>       0.54711770       0.44580401       0.43171541 </v>
    <v>       0.33794464       0.39530619       0.32742061 </v>
    <v>       0.54925072       0.39555302       0.32161575 </v>
    <v>       0.53388771       0.27730786       0.36269619 </v>
    <v>       0.24578509       0.67109041       0.34088253 </v>
    <v>       0.27172739       0.50332119       0.40753068 </v>
    <v>       0.47827117       0.62735161       0.35273711 </v>
    <v>       0.61211823       0.33415747       0.43925564 </v>
    <v>       0.30678722       0.71353886       0.39899754 </v>
    <v>       0.65734814       0.46756927       0.42107697 </v>
    <v>       0.48665112       0.50107999       0.46666175 </v>
   </varray>
  </structure>
  <varray name="forces" >
   <v>       0.07727462      -0.01196226      -0.01152821 </v>
   <v>      -0.06584577       0.01389219       0.02436319 </v>
   <v>       0.06620366       0.01782449      -0.00576527 </v>
   <v>       0.01127917       0.00189102      -0.02106522 </v>
   <v>       0.02001530       0.05372716      -0.02947733 </v>
   <v>       0.02865885      -0.03792661       0.02734017 </v>
   <v>      -0.08714132       0.00987386       0.00484646 </v>
   <v>      -0.00744806      -0.00215579       0.01523162 </v>
   <v>       0.00268530      -0.06272629       0.00306909 </v>
   <v>      -0.00957039       0.01402576      -0.02486299 </v>
   <v>      -0.04765248       0.00335421       0.04566347 </v>
   <v>      -0.03358047       0.00597715       0.01334615 </v>
   <v>       0.00629635      -0.05960984      -0.03089034 </v>
   <v>       0.03882523       0.05381497      -0.01027079 </v>
  </varray>
  <varray name="stress" >
   <v>      -1.01546184      -0.04471299      -0.01120957 </v>
   <v>      -0.04471299      -0.93273368       0.00148889 </v>
   <v>      -0.01120957       0.00148889      -0.93551629 </v>
  </varray>
  <energy>
   <i name="e_fr_energy">    -77.81315499 </i>
   <i name="e_wo_entrp">    -77.81315499 </i>
   <i name="e_0_energy">     -0.00000000 </i>
  </energy>
  <time name="totalsc">  123.10  123.91</time>
  <eigenvalues>
   <array>
    <dimension dim="1">band</dimension>
    <dimension dim="2">kpoint</dimension>
    <dimension dim="3">spin</dimension>
    <field>eigene</field>
    <field>occ</field>
    <set>
     <set comment="spin 1">
      <set comment="kpoint 1">
       <r>  -19.9651    1.0000 </r>
       <r>  -16.9614    1.0000 </r>
       <r>  -16.9268    1.0000 </r>
       <r>  -13.8675    1.0000 </r>
       <r>  -11.3523    1.0000 </r>
       <r>  -10.5775    1.0000 </r>
       <r>  -10.5234    1.0000 </r>
       <r>   -9.4904    1.0000 </r>
       <r>   -9.3198    1.0000 </r>
       <r>   -8.8356    1.0000 </r>
       <r>   -7.9794    1.0000 </r>
       <r>   -7.9644    1.0000 </r>
       <r>   -7.8194    1.0000 </r>
       <r>   -1.0440    0.0000 </r>
       <r>   -0.4350    0.0000 </r>
       <r>    0.0490    0.0000 </r>
       <r>    0.2920    0.0000 </r>
       <r>    0.4354    0.0000 </r>
       <r>    0.4973    0.0000 </r>
       <r>    0.6290    0.0000 </r>
       <r>    0.8308    0.0000 </r>
       <r>    0.8925    0.0000 </r>
       <r>    1.1091    0.0000 </r>
       <r>    1.2032    0.0000 </r>
      </set>
      <set comment="kpoint 2">
       <r>  -19.9651    1.0000 </r>
       <r>  -16.9614    1.0000 </r>
       <r>  -16.9268    1.0000 </r>
       <r>  -13.8676    1.0000 </r>
       <r>  -11.3527    1.0000 </r>
       <r>  -10.5773    1.0000 </r>
       <r>  -10.5234    1.0000 </r>
       <r>   -9.4898    1.0000 </r>
       <r>   -9.3199    1.0000 </r>
       <r>   -8.8356    1.0000 </r>
       <r>   -7.9797    1.0000 </r>
       <r>   -7.9646    1.0000 </r>
       <r>   -7.8168    1.0000 </r>
       <r>   -0.7743    0.0000 </r>
       <r>   -0.1651    0.0000 </r>
       <r>   -0.0104    0.0000 </r>
       <r>    0.1591    0.0000 </r>
       <r>    0.3238    0.0000 </r>
       <r>    0.3983    0.0000 </r>
       <r>    0.6126    0.0000 </r>
       <r>    0.6973    0.0000 </r>
       <r>    0.8145    0.0000 </r>
       <r>    0.9939    0.0000 </r>
       <r>    1.1297    0.0000 </r>
      </set>
      <set comment="kpoint 3">
       <r>  -19.9651    1.0000 </r>
       <r>  -16.9614    1.0000 </r>
       <r>  -16.9268    1.0000 </r>
       <r>  -13.8676    1.0000 </r>
       <r>  -11.3527    1.0000 </r>
       <r>  -10.5772    1.0000 </r>
       <r>  -10.5235    1.0000 </r>
       <r>   -9.4898    1.0000 </r>
       <r>   -9.3197    1.0000 </r>
       <r>   -8.8354    1.0000 </r>
       <r>   -7.9802    1.0000 </r>
       <r>   -7.9647    1.0000 </r>
       <r>   -7.8168    1.0000 </r>
       <r>   -0.5784    0.0000 </r>
       <r>   -0.2219    0.0000 </r>
       <r>   -0.1328    0.0000 </r>
       <r>    0.0212    0.0000 </r>
       <r>    0.3505    0.0000 </r>
       <r>    0.4623    0.0000 </r>
       <r>    0.4901    0.0000 </r>
       <r>    0.5492    0.0000 </r>
       <r>    0.9198    0.0000 </r>
       <r>    0.9342    0.0000 </r>
       <r>    0.9933    0.0000 </r>
      </set>
      <set comment="kpoint 4">
       <r>  -19.9652    1.0000 </r>
       <r>  -16.9615    1.0000 </r>
       <r>  -16.9268    1.0000 </r>
       <r>  -13.8675    1.0000 </r>
       <r>  -11.3522    1.0000 </r>
       <r>  -10.5774    1.0000 </r>
       <r>  -10.5235    1.0000 </r>
       <r>   -9.4905    1.0000 </r>
       <r>   -9.3198    1.0000 </r>
       <r>   -8.8355    1.0000 </r>
       <r>   -7.9798    1.0000 </r>
       <r>   -7.9646    1.0000 </r>
       <r>   -7.8194    1.0000 </r>
       <r>   -0.9744    0.0000 </r>
       <r>   -0.3744    0.0000 </r>
       <r>   -0.0924    0.0000 </r>
       <r>    0.1287    0.0000 </r>
       <r>    0.4571    0.0000 </r>
       <r>    0.5670    0.0000 </r>
       <r>    0.6161    0.0000 </r>
       <r>    0.8565    0.0000 </r>
       <r>    0.8972    0.0000 </r>
       <r>    1.0160    0.0000 </r>
       <r>    1.1305    0.0000 </r>
      </set>
      <set comment="kpoint 5">
       <r>  -19.9652    1.0000 </r>
       <r>  -16.9614    1.0000 </r>
       <r>  -16.9268    1.0000 </r>
       <r>  -13.8675    1.0000 </r>
       <r>  -11.3522    1.0000 </r>
       <r>  -10.5774    1.0000 </r>
       <r>  -10.5235    1.0000 </r>
       <r>   -9.4904    1.0000 </r>
       <r>   -9.3197    1.0000 </r>
       <r>   -8.8356    1.0000 </r>
       <r>   -7.9799    1.0000 </r>
       <r>   -7.9646    1.0000 </r>
       <r>   -7.8194    1.0000 </r>
       <r>   -0.9092    0.0000 </r>
       <r>   -0.3135    0.0000 </r>
       <r>   -0.2561    0.0000 </r>
       <r>    0.1882    0.0000 </r>
       <r>    0.2877    0.0000 </r>
       <r>    0.4089    0.0000 </r>
       <r>    0.6367    0.0000 </r>
       <r>    0.8437    0.0000 </r>
       <r>    0.9506    0.0000 </r>
       <r>    1.0558    0.0000 </r>
       <r>    1.1237    0.0000 </r>
      </set>
      <set comment="kpoint 6">
       <r>  -19.9651    1.0000 </r>
       <r>  -16.9615    1.0000 </r>
       <r>  -16.9268    1.0000 </r>
       <r>  -13.8677    1.0000 </r>
       <r>  -11.3528    1.0000 </r>
       <r>  -10.5774    1.0000 </r>
       <r>  -10.5235    1.0000 </r>
       <r>   -9.4898    1.0000 </r>
       <r>   -9.3200    1.0000 </r>
       <r>   -8.8358    1.0000 </r>
       <r>   -7.9795    1.0000 </r>
       <r>   -7.9645    1.0000 </r>
       <r>   -7.8169    1.0000 </r>
       <r>   -0.7793    0.0000 </r>
       <r>   -0.2305    0.0000 </r>
       <r>   -0.1533    0.0000 </r>
       <r>    0.2763    0.0000 </r>
       <r>    0.3579    0.0000 </r>
       <r>    0.3885    0.0000 </r>
       <r>    0.6784    0.0000 </r>
       <r>    0.7892    0.0000 </r>
       <r>    0.8652    0.0000 </r>
       <r>    1.0176    0.0000 </r>
       <r>    1.1077    0.0000 </r>
      </set>
      <set comment="kpoint 7">
       <r>  -19.9651    1.0000 </r>
       <r>  -16.9615    1.0000 </r>
       <r>  -16.9268    1.0000 </r>
       <r>  -13.8676    1.0000 </r>
       <r>  -11.3527    1.0000 </r>
       <r>  -10.5773    1.0000 </r>
       <r>  -10.5234    1.0000 </r>
       <r>   -9.4898    1.0000 </r>
       <r>   -9.3198    1.0000 </r>
       <r>   -8.8356    1.0000 </r>
       <r>   -7.9799    1.0000 </r>
       <r>   -7.9646    1.0000 </r>
       <r>   -7.8168    1.0000 </r>
       <r>   -0.5929    0.0000 </r>
       <r>   -0.2876    0.0000 </r>
       <r>   -0.1676    0.0000 </r>
       <r>    0.0259    0.0000 </r>
       <r>    0.3064    0.0000 </r>
       <r>    0.4012    0.0000 </r>
       <r>    0.5324    0.0000 </r>
       <r>    0.8318    0.0000 </r>
       <r>    0.9336    0.0000 </r>
       <r>    0.9932    0.0000 </r>
       <r>    1.1583    0.0000 </r>
      </set>
      <set comment="kpoint 8">
       <r>  -19.9652    1.0000 </r>
       <r>  -16.9615    1.0000 </r>
       <r>  -16.9269    1.0000 </r>
       <r>  -13.8675    1.0000 </r>
       <r>  -11.3522    1.0000 </r>
       <r>  -10.5774    1.0000 </r>
       <r>  -10.5236    1.0000 </r>
       <r>   -9.4904    1.0000 </r>
       <r>   -9.3197    1.0000 </r>
       <r>   -8.8356    1.0000 </r>
       <r>   -7.9805    1.0000 </r>
       <r>   -7.9648    1.0000 </r>
       <r>   -7.8195    1.0000 </r>
       <r>   -0.7223    0.0000 </r>
       <r>   -0.5564    0.0000 </r>
       <r>   -0.1308    0.0000 </r>
       <r>    0.0014    0.0000 </r>
       <r>    0.3832    0.0000 </r>
       <r>    0.4312    0.0000 </r>
       <r>    0.5442    0.0000 </r>
       <r>    0.8143    0.0000 </r>
       <r>    0.9237    0.0000 </r>
       <r>    1.1015    0.0000 </r>
       <r>    1.1885    0.0000 </r>
      </set>
     </set>
    </set>
   </array>
  </eigenvalues>
  <separator name="orbital magnetization" >
   <v name="MAGDIPOLOUT">      0.00000000      0.00000000      0.00000000</v>
  </separator>
  <dos>
   <i name="efermi">     -7.58605912 </i>
   <total>
    <array>
     <dimension dim="1">gridpoints</dimension>
     <dimension dim="2">spin</dimension>
     <field>energy</field>
     <field>total</field>
     <field>integrated</field>
     <set>
      <set comment="spin 1">
       <r>   -21.0236     0.0000     0.0000 </r>
       <r>   -20.9460     0.0000     0.0000 </r>
       <r>   -20.8684     0.0000     0.0000 </r>
       <r>   -20.7907     0.0000     0.0000 </r>
       <r>   -20.7131     0.0000     0.0000 </r>
       <r>   -20.6355     0.0000     0.0000 </r>
       <r>   -20.5579     0.0000     0.0000 </r>
       <r>   -20.4803     0.0000     0.0000 </r>
       <r>   -20.4027     0.0000     0.0000 </r>
       <r>   -20.3250     0.0000     0.0000 </r>
       <r>   -20.2474     0.0000     0.0000 </r>
       <r>   -20.1698     0.0000     0.0000 </r>
       <r>   -20.0922     0.0042     0.0003 </r>
       <r>   -20.0146     2.0852     0.1622 </r>
       <r>   -19.9369    18.2007     1.5749 </r>
       <r>   -19.8593     5.4417     1.9972 </r>
       <r>   -19.7817     0.0356     2.0000 </r>
       <r>   -19.7041     0.0000     2.0000 </r>
       <r>   -19.6265     0.0000     2.0000 </r>
       <r>   -19.5489     0.0000     2.0000 </r>
       <r>   -19.4712     0.0000     2.0000 </r>
       <r>   -19.3936     0.0000     2.0000 </r>
       <r>   -19.3160     0.0000     2.0000 </r>
       <r>   -19.2384     0.0000     2.0000 </r>
       <r>   -19.1608     0.0000     2.0000 </r>
       <r>   -19.0832     0.0000     2.0000 </r>
       <r>   -19.0055     0.0000     2.0000 </r>
       <r>   -18.9279     0.0000     2.0000 </r>
       <r>   -18.8503     0.0000     2.0000 </r>
       <r>   -18.7727     0.0000     2.0000 </r>
       <r>   -18.6951     0.0000     2.0000 </r>
       <r>   -18.6174     0.0000     2.0000 </r>
       <r>   -18.5398     0.0000     2.0000 </r>
       <r>   -18.4622     0.0000     2.0000 </r>
       <r>   -18.3846     0.0000     2.0000 </r>
       <r>   -18.3070     0.0000     2.0000 </r>
       <r>   -18.2294     0.0000     2.0000 </r>
       <r>   -18.1517     0.0000     2.0000 </r>
       <r>   -18.0741     0.0000     2.0000 </r>
       <r>   -17.9965     0.0000     2.0000 </r>
       <r>   -17.9189     0.0000     2.0000 </r>
       <r>   -17.8413     0.0000     2.0000 </r>
       <r>   -17.7637     0.0000     2.0000 </r>
       <r>   -17.6860     0.0000     2.0000 </r>
       <r>   -17.6084     0.0000     2.0000 </r>
       <r>   -17.5308     0.0000     2.0000 </r>
       <r>   -17.4532     0.0000     2.0000 </r>
       <r>   -17.3756     0.0000     2.0000 </r>
       <r>   -17.2980     0.0000     2.0000 </r>
       <r>   -17.2203     0.0000     2.0000 </r>
       <r>   -17.1427     0.0000     2.0000 </r>
       <r>   -17.0651     0.0446     2.0035 </r>
       <r>   -16.9875     7.0124     2.5477 </r>
       <r>   -16.9099    34.4775     5.2238 </r>
       <r>   -16.8322     9.9006     5.9923 </r>
       <r>   -16.7546     0.0997     6.0000 </r>
       <r>   -16.6770     0.0000     6.0000 </r>
       <r>   -16.5994     0.0000     6.0000 </r>
       <r>   -16.5218     0.0000     6.0000 </r>
       <r>   -16.4442     0.0000     6.0000 </r>
       <r>   -16.3665     0.0000     6.0000 </r>
       <r>   -16.2889     0.0000     6.0000 </r>
       <r>   -16.2113     0.0000     6.0000 </r>
       <r>   -16.1337     0.0000     6.0000 </r>
       <r>   -16.0561     0.0000     6.0000 </r>
       <r>   -15.9785     0.0000     6.0000 </r>
       <r>   -15.9008     0.0000     6.0000 </r>
       <r>   -15.8232     0.0000     6.0000 </r>
       <r>   -15.7456     0.0000     6.0000 </r>
       <r>   -15.6680     0.0000     6.0000 </r>
       <r>   -15.5904     0.0000     6.0000 </r>
       <r>   -15.5127     0.0000     6.0000 </r>
       <r>   -15.4351     0.0000     6.0000 </r>
       <r>   -15.3575     0.0000     6.0000 </r>
       <r>   -15.2799     0.0000     6.0000 </r>
       <r>   -15.2023     0.0000     6.0000 </r>
       <r>   -15.1247     0.0000     6.0000 </r>
       <r>   -15.0470     0.0000     6.0000 </r>
       <r>   -14.9694     0.0000     6.0000 </r>
       <r>   -14.8918     0.0000     6.0000 </r>
       <r>   -14.8142     0.0000     6.0000 </r>
       <r>   -14.7366     0.0000     6.0000 </r>
       <r>   -14.6590     0.0000     6.0000 </r>
       <r>   -14.5813     0.0000     6.0000 </r>
       <r>   -14.5037     0.0000     6.0000 </r>
       <r>   -14.4261     0.0000     6.0000 </r>
       <r>   -14.3485     0.0000     6.0000 </r>
       <r>   -14.2709     0.0000     6.0000 </r>
       <r>   -14.1932     0.0000     6.0000 </r>
       <r>   -14.1156     0.0000     6.0000 </r>
       <r>   -14.0380     0.0000     6.0000 </r>
       <r>   -13.9604     0.1114     6.0086 </r>
       <r>   -13.8828     8.4813     6.6669 </r>
       <r>   -13.8052    16.1754     7.9224 </r>
       <r>   -13.7275     0.9983     7.9999 </r>
       <r>   -13.6499     0.0010     8.0000 </r>
       <r>   -13.5723     0.0000     8.0000 </r>
       <r>   -13.4947     0.0000     8.0000 </r>
       <r>   -13.4171     0.0000     8.0000 </r>
       <r>   -13.3395     0.0000     8.0000 </r>
       <r>   -13.2618     0.0000     8.0000 </r>
       <r>   -13.1842     0.0000     8.0000 </r>
       <r>   -13.1066     0.0000     8.0000 </r>
       <r>   -13.0290     0.0000     8.0000 </r>
       <r>   -12.9514     0.0000     8.0000 </r>
       <r>   -12.8738     0.0000     8.0000 </r>
       <r>   -12.7961     0.0000     8.0000 </r>
       <r>   -12.7185     0.0000     8.0000 </r>
       <r>   -12.6409     0.0000     8.0000 </r>
       <r>   -12.5633     0.0000     8.0000 </r>
       <r>   -12.4857     0.0000     8.0000 </r>
       <r>   -12.4080     0.0000     8.0000 </r>
       <r>   -12.3304     0.0000     8.0000 </r>
       <r>   -12.2528     0.0000     8.0000 </r>
       <r>   -12.1752     0.0000     8.0000 </r>
       <r>   -12.0976     0.0000     8.0000 </r>
       <r>   -12.0200     0.0000     8.0000 </r>
       <r>   -11.9423     0.0000     8.0000 </r>
       <r>   -11.8647     0.0000     8.0000 </r>
       <r>   -11.7871     0.0000     8.0000 </r>
       <r>   -11.7095     0.0000     8.0000 </r>
       <r>   -11.6319     0.0000     8.0000 </r>
       <r>   -11.5543     0.0000     8.0000 </r>
       <r>   -11.4766     0.0057     8.0004 </r>
       <r>   -11.3990     2.4172     8.1881 </r>
       <r>   -11.3214    18.4561     9.6206 </r>
       <r>   -11.2438     4.8612     9.9979 </r>
       <r>   -11.1662     0.0272    10.0000 </r>
       <r>   -11.0885     0.0000    10.0000 </r>
       <r>   -11.0109     0.0000    10.0000 </r>
       <r>   -10.9333     0.0000    10.0000 </r>
       <r>   -10.8557     0.0000    10.0000 </r>
       <r>   -10.7781     0.0000    10.0000 </r>
       <r>   -10.7005     0.0064    10.0005 </r>
       <r>   -10.6228     2.6103    10.2031 </r>
       <r>   -10.5452    25.4053    12.1750 </r>
       <r>   -10.4676    22.0192    13.8841 </r>
       <r>   -10.3900     1.4914    13.9998 </r>
       <r>   -10.3124     0.0021    14.0000 </r>
       <r>   -10.2348     0.0000    14.0000 </r>
       <r>   -10.1571     0.0000    14.0000 </r>
       <r>   -10.0795     0.0000    14.0000 </r>
       <r>   -10.0019     0.0000    14.0000 </r>
       <r>    -9.9243     0.0000    14.0000 </r>
       <r>    -9.8467     0.0000    14.0000 </r>
       <r>    -9.7691     0.0000    14.0000 </r>
       <r>    -9.6914     0.0000    14.0000 </r>
       <r>    -9.6138     0.0060    14.0005 </r>
       <r>    -9.5362     2.4745    14.1925 </r>
       <r>    -9.4586    18.4912    15.6278 </r>
       <r>    -9.3810     5.8461    16.0815 </r>
       <r>    -9.3033    16.4458    17.3580 </r>
       <r>    -9.2257     8.1705    17.9922 </r>
       <r>    -9.1481     0.1006    18.0000 </r>
       <r>    -9.0705     0.0000    18.0000 </r>
       <r>    -8.9929     0.0001    18.0000 </r>
       <r>    -8.9153     0.3123    18.0242 </r>
       <r>    -8.8376    11.9771    18.9539 </r>
       <r>    -8.7600    13.0584    19.9674 </r>
       <r>    -8.6824     0.4193    20.0000 </r>
       <r>    -8.6048     0.0002    20.0000 </r>
       <r>    -8.5272     0.0000    20.0000 </r>
       <r>    -8.4496     0.0000    20.0000 </r>
       <r>    -8.3719     0.0000    20.0000 </r>
       <r>    -8.2943     0.0000    20.0000 </r>
       <r>    -8.2167     0.0000    20.0000 </r>
       <r>    -8.1391     0.0001    20.0000 </r>
       <r>    -8.0615     0.3497    20.0271 </r>
       <r>    -7.9838    18.9268    21.4962 </r>
       <r>    -7.9062    30.6684    23.8766 </r>
       <r>    -7.8286    11.4608    24.7662 </r>
       <r>    -7.7510    15.1508    25.9421 </r>
       <r>    -7.6734     0.7450    26.0000 </r>
       <r>    -7.5958     0.0006    26.0000 </r>
       <r>    -7.5181     0.0000    26.0000 </r>
       <r>    -7.4405     0.0000    26.0000 </r>
       <r>    -7.3629     0.0000    26.0000 </r>
       <r>    -7.2853     0.0000    26.0000 </r>
       <r>    -7.2077     0.0000    26.0000 </r>
       <r>    -7.1301     0.0000    26.0000 </r>
       <r>    -7.0524     0.0000    26.0000 </r>
       <r>    -6.9748     0.0000    26.0000 </r>
       <r>    -6.8972     0.0000    26.0000 </r>
       <r>    -6.8196     0.0000    26.0000 </r>
       <r>    -6.7420     0.0000    26.0000 </r>
       <r>    -6.6644     0.0000    26.0000 </r>
       <r>    -6.5867     0.0000    26.0000 </r>
       <r>    -6.5091     0.0000    26.0000 </r>
       <r>    -6.4315     0.0000    26.0000 </r>
       <r>    -6.3539     0.0000    26.0000 </r>
       <r>    -6.2763     0.0000    26.0000 </r>
       <r>    -6.1986     0.0000    26.0000 </r>
       <r>    -6.1210     0.0000    26.0000 </r>
       <r>    -6.0434     0.0000    26.0000 </r>
       <r>    -5.9658     0.0000    26.0000 </r>
       <r>    -5.8882     0.0000    26.0000 </r>
       <r>    -5.8106     0.0000    26.0000 </r>
       <r>    -5.7329     0.0000    26.0000 </r>
       <r>    -5.6553     0.0000    26.0000 </r>
       <r>    -5.5777     0.0000    26.0000 </r>
       <r>    -5.5001     0.0000    26.0000 </r>
       <r>    -5.4225     0.0000    26.0000 </r>
       <r>    -5.3449     0.0000    26.0000 </r>
       <r>    -5.2672     0.0000    26.0000 </r>
       <r>    -5.1896     0.0000    26.0000 </r>
       <r>    -5.1120     0.0000    26.0000 </r>
       <r>    -5.0344     0.0000    26.0000 </r>
       <r>    -4.9568     0.0000    26.0000 </r>
       <r>    -4.8791     0.0000    26.0000 </r>
       <r>    -4.8015     0.0000    26.0000 </r>
       <r>    -4.7239     0.0000    26.0000 </r>
       <r>    -4.6463     0.0000    26.0000 </r>
       <r>    -4.5687     0.0000    26.0000 </r>
       <r>    -4.4911     0.0000    26.0000 </r>
       <r>    -4.4134     0.0000    26.0000 </r>
       <r>    -4.3358     0.0000    26.0000 </r>
       <r>    -4.2582     0.0000    26.0000 </r>
       <r>    -4.1806     0.0000    26.0000 </r>
       <r>    -4.1030     0.0000    26.0000 </r>
       <r>    -4.0254     0.0000    26.0000 </r>
       <r>    -3.9477     0.0000    26.0000 </r>
       <r>    -3.8701     0.0000    26.0000 </r>
       <r>    -3.7925     0.0000    26.0000 </r>
       <r>    -3.7149     0.0000    26.0000 </r>
       <r>    -3.6373     0.0000    26.0000 </r>
       <r>    -3.5597     0.0000    26.0000 </r>
       <r>    -3.4820     0.0000    26.0000 </r>
       <r>    -3.4044     0.0000    26.0000 </r>
       <r>    -3.3268     0.0000    26.0000 </r>
       <r>    -3.2492     0.0000    26.0000 </r>
       <r>    -3.1716     0.0000    26.0000 </r>
       <r>    -3.0939     0.0000    26.0000 </r>
       <r>    -3.0163     0.0000    26.0000 </r>
       <r>    -2.9387     0.0000    26.0000 </r>
       <r>    -2.8611     0.0000    26.0000 </r>
       <r>    -2.7835     0.0000    26.0000 </r>
       <r>    -2.7059     0.0000    26.0000 </r>
       <r>    -2.6282     0.0000    26.0000 </r>
       <r>    -2.5506     0.0000    26.0000 </r>
       <r>    -2.4730     0.0000    26.0000 </r>
       <r>    -2.3954     0.0000    26.0000 </r>
       <r>    -2.3178     0.0000    26.0000 </r>
       <r>    -2.2402     0.0000    26.0000 </r>
       <r>    -2.1625     0.0000    26.0000 </r>
       <r>    -2.0849     0.0000    26.0000 </r>
       <r>    -2.0073     0.0000    26.0000 </r>
       <r>    -1.9297     0.0000    26.0000 </r>
       <r>    -1.8521     0.0000    26.0000 </r>
       <r>    -1.7744     0.0000    26.0000 </r>
       <r>    -1.6968     0.0000    26.0000 </r>
       <r>    -1.6192     0.0000    26.0000 </r>
       <r>    -1.5416     0.0000    26.0000 </r>
       <r>    -1.4640     0.0000    26.0000 </r>
       <r>    -1.3864     0.0000    26.0000 </r>
       <r>    -1.3087     0.0000    26.0000 </r>
       <r>    -1.2311     0.0000    26.0000 </r>
       <r>    -1.1535     0.0031    26.0002 </r>
       <r>    -1.0759     0.5943    26.0464 </r>
       <r>    -0.9983     3.1305    26.2894 </r>
       <r>    -0.9207     3.7075    26.5771 </r>
       <r>    -0.8430     2.3284    26.7578 </r>
       <r>    -0.7654     4.2931    27.0911 </r>
       <r>    -0.6878     4.7159    27.4571 </r>
       <r>    -0.6102     2.3572    27.6401 </r>
       <r>    -0.5326     6.6052    28.1528 </r>
       <r>    -0.4550     2.2028    28.3237 </r>
       <r>    -0.3773     3.7417    28.6141 </r>
       <r>    -0.2997     5.4489    29.0371 </r>
       <r>    -0.2221     9.3079    29.7595 </r>
       <r>    -0.1445    12.2127    30.7075 </r>
       <r>    -0.0669     9.4998    31.4448 </r>
       <r>     0.0108     7.7485    32.0462 </r>
       <r>     0.0884     8.8813    32.7356 </r>
       <r>     0.1660     5.6533    33.1744 </r>
       <r>     0.2436     5.3340    33.5884 </r>
       <r>     0.3212    12.1077    34.5281 </r>
       <r>     0.3988    18.4628    35.9612 </r>
       <r>     0.4765    19.2080    37.4521 </r>
       <r>     0.5541    14.3697    38.5674 </r>
       <r>     0.6317    13.3722    39.6053 </r>
       <r>     0.7093     9.6534    40.3546 </r>
       <r>     0.7869     5.7642    40.8020 </r>
       <r>     0.8645    18.1458    42.2104 </r>
       <r>     0.9422    20.0687    43.7681 </r>
       <r>     1.0198    17.5331    45.1290 </r>
       <r>     1.0974    13.4603    46.1737 </r>
       <r>     1.1750    16.7327    47.4725 </r>
       <r>     1.2526     6.4080    47.9699 </r>
       <r>     1.3303     0.3876    48.0000 </r>
       <r>     1.4079     0.0006    48.0000 </r>
       <r>     1.4855     0.0000    48.0000 </r>
       <r>     1.5631     0.0000    48.0000 </r>
       <r>     1.6407     0.0000    48.0000 </r>
       <r>     1.7183     0.0000    48.0000 </r>
       <r>     1.7960     0.0000    48.0000 </r>
       <r>     1.8736     0.0000    48.0000 </r>
       <r>     1.9512     0.0000    48.0000 </r>
       <r>     2.0288     0.0000    48.0000 </r>
       <r>     2.1064     0.0000    48.0000 </r>
       <r>     2.1840     0.0000    48.0000 </r>
       <r>     2.2617     0.0000    48.0000 </r>
      </set>
     </set>
    </array>
   </total>
  </dos>
 </calculation>
 <structure name="finalpos" >
  <crystal>
   <varray name="basis" >
    <v>       8.31557575       0.00000000       0.00000000 </v>
    <v>       5.54371716       9.60199979       0.00000000 </v>
    <v>       0.00000000       0.00000000      26.78963917 </v>
   </varray>
   <i name="volume">   2139.04972377 </i>
   <varray name="rec_basis" >
    <v>       0.12025626      -0.06942998       0.00000000 </v>
    <v>       0.00000000       0.10414497       0.00000000 </v>
    <v>       0.00000000       0.00000000       0.03732786 </v>
   </varray>
  </crystal>
  <varray name="positions" >
   <v>       0.45795902       0.38382317       0.34825366 </v>
   <v>       0.35374358       0.63451262       0.36961080 </v>
   <v>       0.39886834       0.49191003       0.39049052 </v>
   <v>       0.54711770       0.44580401       0.43171541 </v>
   <v>       0.33794464       0.39530619       0.32742061 </v>
   <v>       0.54925072       0.39555302       0.32161575 </v>
   <v>       0.53388771       0.27730786       0.36269619 </v>
   <v>       0.24578509       0.67109041       0.34088253 </v>
   <v>       0.27172739       0.50332119       0.40753068 </v>
   <v>       0.47827117       0.62735161       0.35273711 </v>
   <v>       0.61211823       0.33415747       0.43925564 </v>
   <v>       0.30678722       0.71353886       0.39899754 </v>
   <v>       0.65734814       0.46756927       0.42107697 </v>
   <v>       0.48665112       0.50107999       0.46666175 </v>
  </varray>
 </structure>
</modeling>
