  14  14   0   0
  0.1527893E+03  0.8315576E-09  0.1108743E-08  0.2678964E-08  0.5000000E-15
  1.000000000000000E-004
  CAR 
 unknown system                          
      2.20924852    -20.73718264  301     -7.49517966      1.00000000
    -20.737  0.0000E+00  0.0000E+00
    -20.661  0.0000E+00  0.0000E+00
    -20.584  0.0000E+00  0.0000E+00
    -20.508  0.0000E+00  0.0000E+00
    -20.431  0.0000E+00  0.0000E+00
    -20.355  0.0000E+00  0.0000E+00
    -20.278  0.0000E+00  0.0000E+00
    -20.202  0.0000E+00  0.0000E+00
    -20.125  0.0000E+00  0.0000E+00
    -20.049  0.0000E+00  0.0000E+00
    -19.972  0.4717E-13  0.3608E-14
    -19.896  0.1526E-06  0.1167E-07
    -19.819  0.5211E-02  0.3986E-03
    -19.743  0.2195E+01  0.1683E+00
    -19.666  0.1830E+02  0.1568E+01
    -19.590  0.5606E+01  0.1997E+01
    -19.513  0.4165E-01  0.2000E+01
    -19.437  0.4154E-05  0.2000E+01
    -19.360  0.4495E-11  0.2000E+01
    -19.284  0.0000E+00  0.2000E+01
    -19.207  0.0000E+00  0.2000E+01
    -19.131  0.0000E+00  0.2000E+01
    -19.054  0.0000E+00  0.2000E+01
    -18.978  0.0000E+00  0.2000E+01
    -18.901  0.0000E+00  0.2000E+01
    -18.825  0.0000E+00  0.2000E+01
    -18.748  0.0000E+00  0.2000E+01
    -18.672  0.0000E+00  0.2000E+01
    -18.596  0.0000E+00  0.2000E+01
    -18.519  0.0000E+00  0.2000E+01
    -18.443  0.0000E+00  0.2000E+01
    -18.366  0.0000E+00  0.2000E+01
    -18.290  0.0000E+00  0.2000E+01
    -18.213  0.0000E+00  0.2000E+01
    -18.137  0.0000E+00  0.2000E+01
    -18.060  0.9070E-10  0.2000E+01
    -17.984  0.3477E-04  0.2000E+01
    -17.907  0.1482E+00  0.2011E+01
    -17.831  0.9165E+01  0.2712E+01
    -17.754  0.1588E+02  0.3927E+01
    -17.678  0.9495E+00  0.4000E+01
    -17.601  0.9876E-03  0.4000E+01
    -17.525  0.1212E-07  0.4000E+01
    -17.448  0.0000E+00  0.4000E+01
    -17.372  0.0000E+00  0.4000E+01
    -17.295  0.0000E+00  0.4000E+01
    -17.219  0.0000E+00  0.4000E+01
    -17.142  0.0000E+00  0.4000E+01
    -17.066  0.0000E+00  0.4000E+01
    -16.989  0.0000E+00  0.4000E+01
    -16.913  0.0000E+00  0.4000E+01
    -16.836  0.0000E+00  0.4000E+01
    -16.760  0.0000E+00  0.4000E+01
    -16.683  0.0000E+00  0.4000E+01
    -16.607  0.0000E+00  0.4000E+01
    -16.530  0.0000E+00  0.4000E+01
    -16.454  0.0000E+00  0.4000E+01
    -16.377  0.0000E+00  0.4000E+01
    -16.301  0.0000E+00  0.4000E+01
    -16.224  0.1451E-14  0.4000E+01
    -16.148  0.7996E-08  0.4000E+01
    -16.071  0.7480E-03  0.4000E+01
    -15.995  0.8203E+00  0.4063E+01
    -15.918  0.1536E+02  0.5238E+01
    -15.842  0.9784E+01  0.5986E+01
    -15.765  0.1785E+00  0.6000E+01
    -15.689  0.4789E-04  0.6000E+01
    -15.612  0.1436E-09  0.6000E+01
    -15.536  0.0000E+00  0.6000E+01
    -15.460  0.0000E+00  0.6000E+01
    -15.383  0.0000E+00  0.6000E+01
    -15.307  0.0000E+00  0.6000E+01
    -15.230  0.0000E+00  0.6000E+01
    -15.154  0.0000E+00  0.6000E+01
    -15.077  0.0000E+00  0.6000E+01
    -15.001  0.0000E+00  0.6000E+01
    -14.924  0.0000E+00  0.6000E+01
    -14.848  0.0000E+00  0.6000E+01
    -14.771  0.0000E+00  0.6000E+01
    -14.695  0.0000E+00  0.6000E+01
    -14.618  0.0000E+00  0.6000E+01
    -14.542  0.0000E+00  0.6000E+01
    -14.465  0.0000E+00  0.6000E+01
    -14.389  0.0000E+00  0.6000E+01
    -14.312  0.1397E-13  0.6000E+01
    -14.236  0.6191E-07  0.6000E+01
    -14.159  0.2900E-02  0.6000E+01
    -14.083  0.1647E+01  0.6126E+01
    -14.006  0.1762E+02  0.7474E+01
    -13.930  0.6811E+01  0.7995E+01
    -13.853  0.6734E-01  0.8000E+01
    -13.777  0.9177E-05  0.8000E+01
    -13.700  0.1368E-10  0.8000E+01
    -13.624  0.0000E+00  0.8000E+01
    -13.547  0.0000E+00  0.8000E+01
    -13.471  0.0000E+00  0.8000E+01
    -13.394  0.0000E+00  0.8000E+01
    -13.318  0.0000E+00  0.8000E+01
    -13.241  0.0000E+00  0.8000E+01
    -13.165  0.0000E+00  0.8000E+01
    -13.088  0.0000E+00  0.8000E+01
    -13.012  0.0000E+00  0.8000E+01
    -12.935  0.0000E+00  0.8000E+01
    -12.859  0.0000E+00  0.8000E+01
    -12.782  0.0000E+00  0.8000E+01
    -12.706  0.0000E+00  0.8000E+01
    -12.629  0.0000E+00  0.8000E+01
    -12.553  0.0000E+00  0.8000E+01
    -12.476  0.0000E+00  0.8000E+01
    -12.400  0.0000E+00  0.8000E+01
    -12.323  0.0000E+00  0.8000E+01
    -12.247  0.0000E+00  0.8000E+01
    -12.171  0.0000E+00  0.8000E+01
    -12.094  0.0000E+00  0.8000E+01
    -12.018  0.0000E+00  0.8000E+01
    -11.941  0.0000E+00  0.8000E+01
    -11.865  0.0000E+00  0.8000E+01
    -11.788  0.0000E+00  0.8000E+01
    -11.712  0.0000E+00  0.8000E+01
    -11.635  0.0000E+00  0.8000E+01
    -11.559  0.0000E+00  0.8000E+01
    -11.482  0.0000E+00  0.8000E+01
    -11.406  0.9976E-09  0.8000E+01
    -11.329  0.1826E-03  0.8000E+01
    -11.253  0.3847E+00  0.8029E+01
    -11.176  0.1432E+02  0.9125E+01
    -11.100  0.3072E+02  0.1147E+02
    -11.023  0.6817E+01  0.1200E+02
    -10.947  0.5781E-01  0.1200E+02
    -10.870  0.7083E-05  0.1200E+02
    -10.794  0.9499E-11  0.1200E+02
    -10.717  0.0000E+00  0.1200E+02
    -10.641  0.0000E+00  0.1200E+02
    -10.564  0.0000E+00  0.1200E+02
    -10.488  0.0000E+00  0.1200E+02
    -10.411  0.1435E-12  0.1200E+02
    -10.335  0.3446E-06  0.1200E+02
    -10.258  0.8787E-02  0.1200E+02
    -10.182  0.2814E+01  0.1222E+02
    -10.105  0.1869E+02  0.1365E+02
    -10.029  0.4608E+01  0.1400E+02
     -9.952  0.2623E-01  0.1400E+02
     -9.876  0.1961E-05  0.1400E+02
     -9.799  0.1579E-11  0.1400E+02
     -9.723  0.0000E+00  0.1400E+02
     -9.646  0.0000E+00  0.1400E+02
     -9.570  0.6745E-11  0.1400E+02
     -9.493  0.6042E-05  0.1400E+02
     -9.417  0.6257E-01  0.1400E+02
     -9.340  0.9476E+01  0.1473E+02
     -9.264  0.3696E+02  0.1756E+02
     -9.187  0.5776E+01  0.1800E+02
     -9.111  0.2089E-01  0.1800E+02
     -9.035  0.3831E-05  0.1800E+02
     -8.958  0.3250E-01  0.1800E+02
     -8.882  0.5048E+01  0.1839E+02
     -8.805  0.1854E+02  0.1981E+02
     -8.729  0.2521E+01  0.2000E+02
     -8.652  0.6968E-02  0.2000E+02
     -8.576  0.2404E-06  0.2000E+02
     -8.499  0.8782E-13  0.2000E+02
     -8.423  0.0000E+00  0.2000E+02
     -8.346  0.0000E+00  0.2000E+02
     -8.270  0.0000E+00  0.2000E+02
     -8.193  0.0000E+00  0.2000E+02
     -8.117  0.5310E-11  0.2000E+02
     -8.040  0.4678E-05  0.2000E+02
     -7.964  0.4483E-01  0.2000E+02
     -7.887  0.5966E+01  0.2046E+02
     -7.811  0.2843E+02  0.2263E+02
     -7.734  0.2791E+02  0.2477E+02
     -7.658  0.1542E+02  0.2595E+02
     -7.581  0.6727E+00  0.2600E+02
     -7.505  0.5149E-03  0.2600E+02
     -7.428  0.4589E-08  0.2600E+02
     -7.352  0.0000E+00  0.2600E+02
     -7.275  0.0000E+00  0.2600E+02
     -7.199  0.0000E+00  0.2600E+02
     -7.122  0.0000E+00  0.2600E+02
     -7.046  0.0000E+00  0.2600E+02
     -6.969  0.0000E+00  0.2600E+02
     -6.893  0.0000E+00  0.2600E+02
     -6.816  0.0000E+00  0.2600E+02
     -6.740  0.0000E+00  0.2600E+02
     -6.663  0.0000E+00  0.2600E+02
     -6.587  0.0000E+00  0.2600E+02
     -6.510  0.0000E+00  0.2600E+02
     -6.434  0.0000E+00  0.2600E+02
     -6.357  0.0000E+00  0.2600E+02
     -6.281  0.0000E+00  0.2600E+02
     -6.204  0.0000E+00  0.2600E+02
     -6.128  0.0000E+00  0.2600E+02
     -6.051  0.0000E+00  0.2600E+02
     -5.975  0.0000E+00  0.2600E+02
     -5.898  0.0000E+00  0.2600E+02
     -5.822  0.0000E+00  0.2600E+02
     -5.746  0.0000E+00  0.2600E+02
     -5.669  0.0000E+00  0.2600E+02
     -5.593  0.0000E+00  0.2600E+02
     -5.516  0.0000E+00  0.2600E+02
     -5.440  0.0000E+00  0.2600E+02
     -5.363  0.0000E+00  0.2600E+02
     -5.287  0.0000E+00  0.2600E+02
     -5.210  0.0000E+00  0.2600E+02
     -5.134  0.0000E+00  0.2600E+02
     -5.057  0.0000E+00  0.2600E+02
     -4.981  0.0000E+00  0.2600E+02
     -4.904  0.0000E+00  0.2600E+02
     -4.828  0.0000E+00  0.2600E+02
     -4.751  0.0000E+00  0.2600E+02
     -4.675  0.0000E+00  0.2600E+02
     -4.598  0.0000E+00  0.2600E+02
     -4.522  0.0000E+00  0.2600E+02
     -4.445  0.0000E+00  0.2600E+02
     -4.369  0.0000E+00  0.2600E+02
     -4.292  0.0000E+00  0.2600E+02
     -4.216  0.0000E+00  0.2600E+02
     -4.139  0.0000E+00  0.2600E+02
     -4.063  0.0000E+00  0.2600E+02
     -3.986  0.0000E+00  0.2600E+02
     -3.910  0.0000E+00  0.2600E+02
     -3.833  0.0000E+00  0.2600E+02
     -3.757  0.0000E+00  0.2600E+02
     -3.680  0.0000E+00  0.2600E+02
     -3.604  0.0000E+00  0.2600E+02
     -3.527  0.0000E+00  0.2600E+02
     -3.451  0.0000E+00  0.2600E+02
     -3.374  0.0000E+00  0.2600E+02
     -3.298  0.0000E+00  0.2600E+02
     -3.221  0.0000E+00  0.2600E+02
     -3.145  0.0000E+00  0.2600E+02
     -3.068  0.0000E+00  0.2600E+02
     -2.992  0.0000E+00  0.2600E+02
     -2.915  0.0000E+00  0.2600E+02
     -2.839  0.0000E+00  0.2600E+02
     -2.762  0.0000E+00  0.2600E+02
     -2.686  0.0000E+00  0.2600E+02
     -2.610  0.0000E+00  0.2600E+02
     -2.533  0.0000E+00  0.2600E+02
     -2.457  0.0000E+00  0.2600E+02
     -2.380  0.0000E+00  0.2600E+02
     -2.304  0.0000E+00  0.2600E+02
     -2.227  0.0000E+00  0.2600E+02
     -2.151  0.0000E+00  0.2600E+02
     -2.074  0.0000E+00  0.2600E+02
     -1.998  0.0000E+00  0.2600E+02
     -1.921  0.0000E+00  0.2600E+02
     -1.845  0.0000E+00  0.2600E+02
     -1.768  0.0000E+00  0.2600E+02
     -1.692  0.0000E+00  0.2600E+02
     -1.615  0.0000E+00  0.2600E+02
     -1.539  0.0000E+00  0.2600E+02
     -1.462  0.0000E+00  0.2600E+02
     -1.386  0.0000E+00  0.2600E+02
     -1.309  0.0000E+00  0.2600E+02
     -1.233  0.7072E-12  0.2600E+02
     -1.156  0.6120E-06  0.2600E+02
     -1.080  0.5757E-02  0.2600E+02
     -1.003  0.7417E+00  0.2606E+02
     -0.927  0.3319E+01  0.2631E+02
     -0.850  0.4261E+01  0.2664E+02
     -0.774  0.1922E+01  0.2678E+02
     -0.697  0.4993E+01  0.2717E+02
     -0.621  0.4301E+01  0.2749E+02
     -0.544  0.5004E+01  0.2788E+02
     -0.468  0.5054E+01  0.2826E+02
     -0.391  0.3627E+01  0.2854E+02
     -0.315  0.4346E+01  0.2887E+02
     -0.238  0.9142E+01  0.2957E+02
     -0.162  0.1077E+02  0.3040E+02
     -0.085  0.1278E+02  0.3137E+02
     -0.009  0.5919E+01  0.3183E+02
      0.068  0.9388E+01  0.3255E+02
      0.144  0.5286E+01  0.3295E+02
      0.221  0.7749E+01  0.3354E+02
      0.297  0.9482E+01  0.3427E+02
      0.374  0.1550E+02  0.3545E+02
      0.450  0.1945E+02  0.3694E+02
      0.527  0.1515E+02  0.3810E+02
      0.603  0.1438E+02  0.3920E+02
      0.679  0.1055E+02  0.4001E+02
      0.756  0.6700E+01  0.4052E+02
      0.832  0.1575E+02  0.4172E+02
      0.909  0.2249E+02  0.4345E+02
      0.985  0.1759E+02  0.4479E+02
      1.062  0.1596E+02  0.4601E+02
      1.138  0.1634E+02  0.4726E+02
      1.215  0.9150E+01  0.4796E+02
      1.291  0.5149E+00  0.4800E+02
      1.368  0.8192E-03  0.4800E+02
      1.444  0.2056E-07  0.4800E+02
      1.521  0.5806E-14  0.4800E+02
      1.597  0.0000E+00  0.4800E+02
      1.674  0.0000E+00  0.4800E+02
      1.750  0.0000E+00  0.4800E+02
      1.827  0.0000E+00  0.4800E+02
      1.903  0.0000E+00  0.4800E+02
      1.980  0.0000E+00  0.4800E+02
      2.056  0.0000E+00  0.4800E+02
      2.133  0.0000E+00  0.4800E+02
      2.209  0.0000E+00  0.4800E+02
