       N       E                     dE             d eps       ncg     rms          rms(c)
DAV:   1    -0.864789557958E+02   -0.86479E+02   -0.32528E+01   576   0.210E+01    0.138E+01
DAV:   2    -0.799098138310E+02    0.65691E+01   -0.10663E+01   496   0.124E+01    0.694E+00
DAV:   3    -0.779398756985E+02    0.19699E+01   -0.51281E+00   488   0.900E+00    0.271E+00
DAV:   4    -0.776530069137E+02    0.28687E+00   -0.50969E-01   512   0.339E+00    0.583E-01
DAV:   5    -0.776160891106E+02    0.36918E-01   -0.13566E-01   504   0.152E+00    0.297E-01
DAV:   6    -0.776031342756E+02    0.12955E-01   -0.21177E-02   496   0.861E-01    0.221E-01
DAV:   7    -0.775897291048E+02    0.13405E-01   -0.55086E-03   456   0.417E-01    0.118E-01
DAV:   8    -0.775812182814E+02    0.85108E-02   -0.14087E-02   440   0.513E-01    0.101E-01
DAV:   9    -0.775805318963E+02    0.68639E-03   -0.68913E-04   472   0.159E-01
   1 F= -.77580532E+02 E0= -.77580532E+02  d E =-.140931E-10
