  14  14   0   0
  0.1527893E+03  0.8315576E-09  0.1108743E-08  0.2678964E-08  0.5000000E-15
  1.000000000000000E-004
  CAR 
 unknown system                          
      2.28380622    -21.05978448  301     -7.51077538      1.00000000
    -21.060  0.0000E+00  0.0000E+00
    -20.982  0.0000E+00  0.0000E+00
    -20.904  0.0000E+00  0.0000E+00
    -20.826  0.0000E+00  0.0000E+00
    -20.749  0.0000E+00  0.0000E+00
    -20.671  0.0000E+00  0.0000E+00
    -20.593  0.0000E+00  0.0000E+00
    -20.515  0.0000E+00  0.0000E+00
    -20.437  0.0000E+00  0.0000E+00
    -20.359  0.0000E+00  0.0000E+00
    -20.282  0.1569E-13  0.1221E-14
    -20.204  0.8383E-07  0.6523E-08
    -20.126  0.4059E-02  0.3159E-03
    -20.048  0.2068E+01  0.1612E+00
    -19.970  0.1818E+02  0.1576E+01
    -19.893  0.5412E+01  0.1997E+01
    -19.815  0.3462E-01  0.2000E+01
    -19.737  0.2541E-05  0.2000E+01
    -19.659  0.1719E-11  0.2000E+01
    -19.581  0.0000E+00  0.2000E+01
    -19.504  0.0000E+00  0.2000E+01
    -19.426  0.0000E+00  0.2000E+01
    -19.348  0.0000E+00  0.2000E+01
    -19.270  0.0000E+00  0.2000E+01
    -19.192  0.0000E+00  0.2000E+01
    -19.114  0.0000E+00  0.2000E+01
    -19.037  0.0000E+00  0.2000E+01
    -18.959  0.0000E+00  0.2000E+01
    -18.881  0.0000E+00  0.2000E+01
    -18.803  0.0000E+00  0.2000E+01
    -18.725  0.0000E+00  0.2000E+01
    -18.648  0.0000E+00  0.2000E+01
    -18.570  0.0000E+00  0.2000E+01
    -18.492  0.0000E+00  0.2000E+01
    -18.414  0.0000E+00  0.2000E+01
    -18.336  0.0000E+00  0.2000E+01
    -18.259  0.0000E+00  0.2000E+01
    -18.181  0.0000E+00  0.2000E+01
    -18.103  0.0000E+00  0.2000E+01
    -18.025  0.0000E+00  0.2000E+01
    -17.947  0.0000E+00  0.2000E+01
    -17.869  0.0000E+00  0.2000E+01
    -17.792  0.0000E+00  0.2000E+01
    -17.714  0.0000E+00  0.2000E+01
    -17.636  0.0000E+00  0.2000E+01
    -17.558  0.0000E+00  0.2000E+01
    -17.480  0.0000E+00  0.2000E+01
    -17.403  0.0000E+00  0.2000E+01
    -17.325  0.0000E+00  0.2000E+01
    -17.247  0.9167E-13  0.2000E+01
    -17.169  0.3070E-06  0.2000E+01
    -17.091  0.9304E-02  0.2001E+01
    -17.014  0.3058E+01  0.2239E+01
    -16.936  0.2117E+02  0.3886E+01
    -16.858  0.2242E+02  0.5631E+01
    -16.780  0.4722E+01  0.5998E+01
    -16.702  0.2479E-01  0.6000E+01
    -16.625  0.1473E-05  0.6000E+01
    -16.547  0.8033E-12  0.6000E+01
    -16.469  0.0000E+00  0.6000E+01
    -16.391  0.0000E+00  0.6000E+01
    -16.313  0.0000E+00  0.6000E+01
    -16.235  0.0000E+00  0.6000E+01
    -16.158  0.0000E+00  0.6000E+01
    -16.080  0.0000E+00  0.6000E+01
    -16.002  0.0000E+00  0.6000E+01
    -15.924  0.0000E+00  0.6000E+01
    -15.846  0.0000E+00  0.6000E+01
    -15.769  0.0000E+00  0.6000E+01
    -15.691  0.0000E+00  0.6000E+01
    -15.613  0.0000E+00  0.6000E+01
    -15.535  0.0000E+00  0.6000E+01
    -15.457  0.0000E+00  0.6000E+01
    -15.380  0.0000E+00  0.6000E+01
    -15.302  0.0000E+00  0.6000E+01
    -15.224  0.0000E+00  0.6000E+01
    -15.146  0.0000E+00  0.6000E+01
    -15.068  0.0000E+00  0.6000E+01
    -14.990  0.0000E+00  0.6000E+01
    -14.913  0.0000E+00  0.6000E+01
    -14.835  0.0000E+00  0.6000E+01
    -14.757  0.0000E+00  0.6000E+01
    -14.679  0.0000E+00  0.6000E+01
    -14.601  0.0000E+00  0.6000E+01
    -14.524  0.0000E+00  0.6000E+01
    -14.446  0.0000E+00  0.6000E+01
    -14.368  0.0000E+00  0.6000E+01
    -14.290  0.0000E+00  0.6000E+01
    -14.212  0.0000E+00  0.6000E+01
    -14.135  0.3228E-13  0.6000E+01
    -14.057  0.1437E-06  0.6000E+01
    -13.979  0.5738E-02  0.6000E+01
    -13.901  0.2438E+01  0.6190E+01
    -13.823  0.1846E+02  0.7627E+01
    -13.745  0.4769E+01  0.7998E+01
    -13.668  0.2558E-01  0.8000E+01
    -13.590  0.1551E-05  0.8000E+01
    -13.512  0.8629E-12  0.8000E+01
    -13.434  0.0000E+00  0.8000E+01
    -13.356  0.0000E+00  0.8000E+01
    -13.279  0.0000E+00  0.8000E+01
    -13.201  0.0000E+00  0.8000E+01
    -13.123  0.0000E+00  0.8000E+01
    -13.045  0.0000E+00  0.8000E+01
    -12.967  0.0000E+00  0.8000E+01
    -12.890  0.0000E+00  0.8000E+01
    -12.812  0.0000E+00  0.8000E+01
    -12.734  0.0000E+00  0.8000E+01
    -12.656  0.0000E+00  0.8000E+01
    -12.578  0.0000E+00  0.8000E+01
    -12.500  0.0000E+00  0.8000E+01
    -12.423  0.0000E+00  0.8000E+01
    -12.345  0.0000E+00  0.8000E+01
    -12.267  0.0000E+00  0.8000E+01
    -12.189  0.0000E+00  0.8000E+01
    -12.111  0.0000E+00  0.8000E+01
    -12.034  0.0000E+00  0.8000E+01
    -11.956  0.0000E+00  0.8000E+01
    -11.878  0.0000E+00  0.8000E+01
    -11.800  0.0000E+00  0.8000E+01
    -11.722  0.0000E+00  0.8000E+01
    -11.645  0.9099E-09  0.8000E+01
    -11.567  0.2022E-03  0.8000E+01
    -11.489  0.4397E+00  0.8034E+01
    -11.411  0.1327E+02  0.9067E+01
    -11.333  0.1171E+02  0.9978E+01
    -11.255  0.2872E+00  0.1000E+02
    -11.178  0.9364E-04  0.1000E+02
    -11.100  0.2948E-09  0.1000E+02
    -11.022  0.0000E+00  0.1000E+02
    -10.944  0.0000E+00  0.1000E+02
    -10.866  0.0000E+00  0.1000E+02
    -10.789  0.5542E-08  0.1000E+02
    -10.711  0.6828E-03  0.1000E+02
    -10.633  0.8437E+00  0.1007E+02
    -10.555  0.1606E+02  0.1132E+02
    -10.477  0.2238E+02  0.1306E+02
    -10.400  0.1183E+02  0.1398E+02
    -10.322  0.2859E+00  0.1400E+02
    -10.244  0.9285E-04  0.1400E+02
    -10.166  0.2911E-09  0.1400E+02
    -10.088  0.0000E+00  0.1400E+02
    -10.010  0.0000E+00  0.1400E+02
     -9.933  0.0000E+00  0.1400E+02
     -9.855  0.0000E+00  0.1400E+02
     -9.777  0.0000E+00  0.1400E+02
     -9.699  0.3459E-10  0.1400E+02
     -9.621  0.2121E-04  0.1400E+02
     -9.544  0.1230E+00  0.1401E+02
     -9.466  0.9137E+01  0.1472E+02
     -9.388  0.2787E+02  0.1689E+02
     -9.310  0.1387E+02  0.1797E+02
     -9.232  0.4060E+00  0.1800E+02
     -9.155  0.1742E-03  0.1800E+02
     -9.077  0.7310E-09  0.1800E+02
     -8.999  0.7065E-06  0.1800E+02
     -8.921  0.1571E-01  0.1800E+02
     -8.843  0.3862E+01  0.1830E+02
     -8.765  0.1871E+02  0.1976E+02
     -8.688  0.3110E+01  0.2000E+02
     -8.610  0.9695E-02  0.2000E+02
     -8.532  0.3277E-06  0.2000E+02
     -8.454  0.1006E-12  0.2000E+02
     -8.376  0.0000E+00  0.2000E+02
     -8.299  0.2252E-09  0.2000E+02
     -8.221  0.7775E-04  0.2000E+02
     -8.143  0.2586E+00  0.2002E+02
     -8.065  0.1153E+02  0.2092E+02
     -7.987  0.2408E+02  0.2279E+02
     -7.910  0.1493E+02  0.2395E+02
     -7.832  0.1078E+01  0.2404E+02
     -7.754  0.1352E+02  0.2509E+02
     -7.676  0.1145E+02  0.2598E+02
     -7.598  0.2671E+00  0.2600E+02
     -7.521  0.8236E-04  0.2600E+02
     -7.443  0.2448E-09  0.2600E+02
     -7.365  0.0000E+00  0.2600E+02
     -7.287  0.0000E+00  0.2600E+02
     -7.209  0.0000E+00  0.2600E+02
     -7.131  0.0000E+00  0.2600E+02
     -7.054  0.0000E+00  0.2600E+02
     -6.976  0.0000E+00  0.2600E+02
     -6.898  0.0000E+00  0.2600E+02
     -6.820  0.0000E+00  0.2600E+02
     -6.742  0.0000E+00  0.2600E+02
     -6.665  0.0000E+00  0.2600E+02
     -6.587  0.0000E+00  0.2600E+02
     -6.509  0.0000E+00  0.2600E+02
     -6.431  0.0000E+00  0.2600E+02
     -6.353  0.0000E+00  0.2600E+02
     -6.276  0.0000E+00  0.2600E+02
     -6.198  0.0000E+00  0.2600E+02
     -6.120  0.0000E+00  0.2600E+02
     -6.042  0.0000E+00  0.2600E+02
     -5.964  0.0000E+00  0.2600E+02
     -5.886  0.0000E+00  0.2600E+02
     -5.809  0.0000E+00  0.2600E+02
     -5.731  0.0000E+00  0.2600E+02
     -5.653  0.0000E+00  0.2600E+02
     -5.575  0.0000E+00  0.2600E+02
     -5.497  0.0000E+00  0.2600E+02
     -5.420  0.0000E+00  0.2600E+02
     -5.342  0.0000E+00  0.2600E+02
     -5.264  0.0000E+00  0.2600E+02
     -5.186  0.0000E+00  0.2600E+02
     -5.108  0.0000E+00  0.2600E+02
     -5.031  0.0000E+00  0.2600E+02
     -4.953  0.0000E+00  0.2600E+02
     -4.875  0.0000E+00  0.2600E+02
     -4.797  0.0000E+00  0.2600E+02
     -4.719  0.0000E+00  0.2600E+02
     -4.641  0.0000E+00  0.2600E+02
     -4.564  0.0000E+00  0.2600E+02
     -4.486  0.0000E+00  0.2600E+02
     -4.408  0.0000E+00  0.2600E+02
     -4.330  0.0000E+00  0.2600E+02
     -4.252  0.0000E+00  0.2600E+02
     -4.175  0.0000E+00  0.2600E+02
     -4.097  0.0000E+00  0.2600E+02
     -4.019  0.0000E+00  0.2600E+02
     -3.941  0.0000E+00  0.2600E+02
     -3.863  0.0000E+00  0.2600E+02
     -3.786  0.0000E+00  0.2600E+02
     -3.708  0.0000E+00  0.2600E+02
     -3.630  0.0000E+00  0.2600E+02
     -3.552  0.0000E+00  0.2600E+02
     -3.474  0.0000E+00  0.2600E+02
     -3.396  0.0000E+00  0.2600E+02
     -3.319  0.0000E+00  0.2600E+02
     -3.241  0.0000E+00  0.2600E+02
     -3.163  0.0000E+00  0.2600E+02
     -3.085  0.0000E+00  0.2600E+02
     -3.007  0.0000E+00  0.2600E+02
     -2.930  0.0000E+00  0.2600E+02
     -2.852  0.0000E+00  0.2600E+02
     -2.774  0.0000E+00  0.2600E+02
     -2.696  0.0000E+00  0.2600E+02
     -2.618  0.0000E+00  0.2600E+02
     -2.541  0.0000E+00  0.2600E+02
     -2.463  0.0000E+00  0.2600E+02
     -2.385  0.0000E+00  0.2600E+02
     -2.307  0.0000E+00  0.2600E+02
     -2.229  0.0000E+00  0.2600E+02
     -2.151  0.0000E+00  0.2600E+02
     -2.074  0.0000E+00  0.2600E+02
     -1.996  0.0000E+00  0.2600E+02
     -1.918  0.0000E+00  0.2600E+02
     -1.840  0.0000E+00  0.2600E+02
     -1.762  0.0000E+00  0.2600E+02
     -1.685  0.0000E+00  0.2600E+02
     -1.607  0.0000E+00  0.2600E+02
     -1.529  0.0000E+00  0.2600E+02
     -1.451  0.0000E+00  0.2600E+02
     -1.373  0.0000E+00  0.2600E+02
     -1.296  0.9322E-12  0.2600E+02
     -1.218  0.9013E-06  0.2600E+02
     -1.140  0.8128E-02  0.2600E+02
     -1.062  0.8882E+00  0.2607E+02
     -0.984  0.3358E+01  0.2633E+02
     -0.906  0.3607E+01  0.2661E+02
     -0.829  0.2157E+01  0.2678E+02
     -0.751  0.5064E+01  0.2717E+02
     -0.673  0.3907E+01  0.2748E+02
     -0.595  0.3192E+01  0.2773E+02
     -0.517  0.6092E+01  0.2820E+02
     -0.440  0.2256E+01  0.2838E+02
     -0.362  0.4102E+01  0.2869E+02
     -0.284  0.6502E+01  0.2920E+02
     -0.206  0.8736E+01  0.2988E+02
     -0.128  0.1333E+02  0.3092E+02
     -0.051  0.7608E+01  0.3151E+02
      0.027  0.9656E+01  0.3226E+02
      0.105  0.6944E+01  0.3280E+02
      0.183  0.5862E+01  0.3326E+02
      0.261  0.5580E+01  0.3369E+02
      0.339  0.1399E+02  0.3478E+02
      0.416  0.1970E+02  0.3631E+02
      0.494  0.1804E+02  0.3772E+02
      0.572  0.1428E+02  0.3883E+02
      0.650  0.1271E+02  0.3982E+02
      0.728  0.7823E+01  0.4043E+02
      0.805  0.9115E+01  0.4114E+02
      0.883  0.1977E+02  0.4267E+02
      0.961  0.1944E+02  0.4419E+02
      1.039  0.1503E+02  0.4536E+02
      1.117  0.1357E+02  0.4641E+02
      1.194  0.1257E+02  0.4739E+02
      1.272  0.7387E+01  0.4797E+02
      1.350  0.4423E+00  0.4800E+02
      1.428  0.6363E-03  0.4800E+02
      1.506  0.1155E-07  0.4800E+02
      1.583  0.2140E-14  0.4800E+02
      1.661  0.0000E+00  0.4800E+02
      1.739  0.0000E+00  0.4800E+02
      1.817  0.0000E+00  0.4800E+02
      1.895  0.0000E+00  0.4800E+02
      1.973  0.0000E+00  0.4800E+02
      2.050  0.0000E+00  0.4800E+02
      2.128  0.0000E+00  0.4800E+02
      2.206  0.0000E+00  0.4800E+02
      2.284  0.0000E+00  0.4800E+02
