       N       E                     dE             d eps       ncg     rms          rms(c)
DAV:   1    -0.867030960715E+02   -0.86703E+02   -0.34360E+01   576   0.218E+01    0.138E+01
DAV:   2    -0.800867369210E+02    0.66164E+01   -0.11570E+01   496   0.127E+01    0.685E+00
DAV:   3    -0.782360320627E+02    0.18507E+01   -0.52632E+00   488   0.895E+00    0.290E+00
DAV:   4    -0.779318028008E+02    0.30423E+00   -0.67292E-01   496   0.365E+00    0.717E-01
DAV:   5    -0.778915043457E+02    0.40298E-01   -0.17394E-01   488   0.164E+00    0.315E-01
DAV:   6    -0.778788284175E+02    0.12676E-01   -0.19959E-02   504   0.818E-01    0.187E-01
DAV:   7    -0.778684866178E+02    0.10342E-01   -0.39623E-03   440   0.351E-01    0.126E-01
DAV:   8    -0.778567025814E+02    0.11784E-01   -0.18360E-02   440   0.595E-01    0.833E-02
DAV:   9    -0.778563516920E+02    0.35089E-03   -0.10095E-03   448   0.190E-01
   1 F= -.77856352E+02 E0= -.77856352E+02  d E =-.701323E-12
