 vasp.5.4.4.18Apr17-6-g9f103f2a35 (build Dec 31 2018 11:41:54) complex          
  
 executed on             LinuxIFC date 2022.10.14  05:03:01
 running on   16 total cores
 distrk:  each k-point on   16 cores,    1 groups
 distr:  one band on NCORES_PER_BAND=   2 cores,    8 groups


--------------------------------------------------------------------------------------------------------


 INCAR:
 POTCAR:   PAW_PBE C 08Apr2002                    
 POTCAR:   PAW_PBE H 15Jun2001                    

 ----------------------------------------------------------------------------- 
|                                                                             |
|  ADVICE TO THIS USER RUNNING 'VASP/VAMP'   (HEAR YOUR MASTER'S VOICE ...):  |
|                                                                             |
|      You have switched on vdW-DFT.                                          |
|      This routine was written and supplied by Jiri Klimes.                  |
|      We recommed that you carefully read and cite the following             |
|      publication                                                            |
|      J. Klimes, D.R. Bowler, A. Michelides                                  |
|        J. Phys.: Cond Matt. 22 022201 (2010)                                |
|      J. Klimes, D.R. Bowler, A. Michelides                                  |
|        Phys. Rev. B. 83, 195131 (2011)                                      |
|      and references therein.                                                |
|                                                                             |
 ----------------------------------------------------------------------------- 

 POTCAR:   PAW_PBE C 08Apr2002                    
   VRHFIN =C: s2p2                                                              
   LEXCH  = PE                                                                  
   EATOM  =   147.1560 eV,   10.8157 Ry                                         
                                                                                
   TITEL  = PAW_PBE C 08Apr2002                                                 
   LULTRA =        F    use ultrasoft PP ?                                      
   IUNSCR =        0    unscreen: 0-lin 1-nonlin 2-no                           
   RPACOR =     .000    partial core radius                                     
   POMASS =   12.011; ZVAL   =    4.000    mass and valenz                      
   RCORE  =    1.500    outmost cutoff radius                                   
   RWIGS  =    1.630; RWIGS  =     .863    wigner-seitz radius (au A)           
   ENMAX  =  400.000; ENMIN  =  300.000 eV                                      
   ICORE  =        2    local potential                                         
   LCOR   =        T    correct aug charges                                     
   LPAW   =        T    paw PP                                                  
   EAUG   =  644.873                                                            
   DEXC   =     .000                                                            
   RMAX   =    2.266    core radius for proj-oper                               
   RAUG   =    1.300    factor for augmentation sphere                          
   RDEP   =    1.501    radius for radial grids                                 
   RDEPT  =    1.300    core radius for aug-charge                              
   QCUT   =   -5.516; QGAM   =   11.032    optimization parameters              
                                                                                
   Description                                                                  
     l     E      TYP  RCUT    TYP  RCUT                                        
     0   .000     23  1.200                                                     
     0   .000     23  1.200                                                     
     1   .000     23  1.500                                                     
     1  2.500     23  1.500                                                     
     2   .000      7  1.500                                                     
  local pseudopotential read in
  atomic valenz-charges read in
  non local Contribution for L=           0  read in
    real space projection operators read in
  non local Contribution for L=           0  read in
    real space projection operators read in
  non local Contribution for L=           1  read in
    real space projection operators read in
  non local Contribution for L=           1  read in
    real space projection operators read in
    PAW grid and wavefunctions read in
 
   number of l-projection  operators is LMAX  =           4
   number of lm-projection operators is LMMAX =           8
 
 POTCAR:   PAW_PBE H 15Jun2001                    
   VRHFIN =H: ultrasoft test                                                    
   LEXCH  = PE                                                                  
   EATOM  =    12.4884 eV,     .9179 Ry                                         
                                                                                
   TITEL  = PAW_PBE H 15Jun2001                                                 
   LULTRA =        F    use ultrasoft PP ?                                      
   IUNSCR =        0    unscreen: 0-lin 1-nonlin 2-no                           
   RPACOR =     .000    partial core radius                                     
   POMASS =    1.000; ZVAL   =    1.000    mass and valenz                      
   RCORE  =    1.100    outmost cutoff radius                                   
   RWIGS  =     .700; RWIGS  =     .370    wigner-seitz radius (au A)           
   ENMAX  =  250.000; ENMIN  =  200.000 eV                                      
   RCLOC  =     .701    cutoff for local pot                                    
   LCOR   =        T    correct aug charges                                     
   LPAW   =        T    paw PP                                                  
   EAUG   =  400.000                                                            
   RMAX   =    2.174    core radius for proj-oper                               
   RAUG   =    1.200    factor for augmentation sphere                          
   RDEP   =    1.112    radius for radial grids                                 
   QCUT   =   -5.749; QGAM   =   11.498    optimization parameters              
                                                                                
   Description                                                                  
     l     E      TYP  RCUT    TYP  RCUT                                        
     0   .000     23  1.100                                                     
     0   .500     23  1.100                                                     
     1  -.300     23  1.100                                                     
  local pseudopotential read in
  atomic valenz-charges read in
  non local Contribution for L=           0  read in
    real space projection operators read in
  non local Contribution for L=           0  read in
    real space projection operators read in
  non local Contribution for L=           1  read in
    real space projection operators read in
    PAW grid and wavefunctions read in
 
   number of l-projection  operators is LMAX  =           3
   number of lm-projection operators is LMMAX =           5
 
 Optimization of the real space projectors (new method)

 maximal supplied QI-value         = 25.13
 optimisation between [QCUT,QGAM] = [ 10.05, 20.36] = [ 28.30,116.06] Ry 
 Optimized for a Real-space Cutoff    1.38 Angstroem

   l    n(q)    QCUT    max X(q) W(low)/X(q) W(high)/X(q)  e(spline) 
   0      8    10.053     5.582    0.33E-04    0.15E-04    0.75E-07
   0      8    10.053    69.432    0.23E-03    0.38E-03    0.25E-06
   1      8    10.053     2.780    0.76E-04    0.11E-03    0.15E-06
   1      8    10.053     4.549    0.19E-03    0.19E-03    0.27E-06
 Optimization of the real space projectors (new method)

 maximal supplied QI-value         = 34.20
 optimisation between [QCUT,QGAM] = [  9.92, 20.18] = [ 27.55,114.04] Ry 
 Optimized for a Real-space Cutoff    1.34 Angstroem

   l    n(q)    QCUT    max X(q) W(low)/X(q) W(high)/X(q)  e(spline) 
   0      8     9.919     4.436    0.31E-04    0.59E-04    0.66E-07
   0      8     9.919    16.131    0.16E-03    0.20E-03    0.35E-06
   1      8     9.919     4.654    0.19E-03    0.46E-03    0.40E-06

 ----------------------------------------------------------------------------- 
|                                                                             |
|  ADVICE TO THIS USER RUNNING 'VASP/VAMP'   (HEAR YOUR MASTER'S VOICE ...):  |
|                                                                             |
|      You enforced a specific xc-type in the INCAR file,                     |
|      a different type was found on the POTCAR file                          |
|          I HOPE YOU KNOW, WHAT YOU ARE  DOING                               |
|                                                                             |
 ----------------------------------------------------------------------------- 

 PAW_PBE C 08Apr2002                    :
 energy of atom  1       EATOM= -147.1560
 kinetic energy error for atom=    0.0288 (will be added to EATOM!!)
 PAW_PBE H 15Jun2001                    :
 energy of atom  2       EATOM=  -12.4884
 kinetic energy error for atom=    0.0098 (will be added to EATOM!!)
 
 
 POSCAR:  C  H                                   
  positions in cartesian coordinates
  No initial velocities read in
 exchange correlation table for  LEXCH =       17
   RHO(1)=    0.500       N(1)  =     2000
   RHO(2)=  100.500       N(2)  =     4000

 VTST: version 3.2, (02/03/18)

 CHAIN: initializing optimizer
 
 OPT: Using VASP Dynamics algorithm
 CHAIN: Read ICHAIN            0
 
 POSCAR:  C  H                                   
  positions in cartesian coordinates
  No initial velocities read in
 


--------------------------------------------------------------------------------------------------------


 ion  position               nearest neighbor table
   1  0.468  0.382  0.348-   7 1.09   6 1.10   5 1.10   3 1.53
   2  0.345  0.636  0.370-  10 1.09   8 1.10  12 1.10   3 1.53
   3  0.396  0.492  0.390-   9 1.10   2 1.53   1 1.53   4 1.55
   4  0.547  0.446  0.431-  11 1.09  13 1.10  14 1.10   3 1.55
   5  0.359  0.405  0.321-   1 1.10
   6  0.584  0.380  0.328-   1 1.10
   7  0.508  0.279  0.363-   1 1.09
   8  0.225  0.678  0.345-   2 1.10
   9  0.277  0.494  0.409-   3 1.10
  10  0.461  0.631  0.349-   2 1.09
  11  0.588  0.343  0.445-   4 1.09
  12  0.312  0.711  0.401-   2 1.10
  13  0.670  0.446  0.416-   4 1.10
  14  0.495  0.519  0.462-   4 1.10
 
  LATTYP: Found a simple monoclinic cell.
 ALAT       =    11.0874343290
 B/A-ratio  =     2.4162162653
 C/A-ratio  =     1.5206906326
 COS(beta)  =    -0.9041944302
  
  Lattice vectors:
  
 A1 = (  -5.5437171645,  -9.6019997917,   0.0000000000)
 A2 = (   0.0000000000,   0.0000000000, -26.7896391657)
 A3 = (  13.8592929113,   9.6019997917,   0.0000000000)


Analysis of symmetry for initial positions (statically):
=====================================================================
 Subroutine PRICEL returns:
 Original cell was already a primitive cell.
 

 Routine SETGRP: Setting up the symmetry group for a 
 simple monoclinic supercell.


 Subroutine GETGRP returns: Found  1 space group operations
 (whereof  1 operations were pure point group operations)
 out of a pool of  4 trial point group operations.


The static configuration has the point symmetry C_1 .


Analysis of symmetry for dynamics (positions and initial velocities):
=====================================================================
 Subroutine PRICEL returns:
 Original cell was already a primitive cell.
 

 Routine SETGRP: Setting up the symmetry group for a 
 simple monoclinic supercell.


 Subroutine GETGRP returns: Found  1 space group operations
 (whereof  1 operations were pure point group operations)
 out of a pool of  4 trial point group operations.


The dynamic configuration has the point symmetry C_1 .


 Subroutine INISYM returns: Found  1 space group operations
 (whereof  1 operations are pure point group operations),
 and found     1 'primitive' translations

 
 
 KPOINTS: KPOINTS created by Atomic Simulation Env

Automatic generation of k-mesh.
Space group operators:
 irot       det(A)        alpha          n_x          n_y          n_z        tau_x        tau_y        tau_z
    1     1.000000     0.000000     1.000000     0.000000     0.000000     0.000000     0.000000     0.000000
 
 Subroutine IBZKPT returns following result:
 ===========================================
 
 Found      8 irreducible k-points:
 
 Following reciprocal coordinates:
            Coordinates               Weight
  0.125000  0.125000  0.000000      2.000000
  0.375000  0.125000  0.000000      2.000000
 -0.375000  0.125000  0.000000      2.000000
 -0.125000  0.125000  0.000000      2.000000
  0.125000  0.375000  0.000000      2.000000
  0.375000  0.375000  0.000000      2.000000
 -0.375000  0.375000  0.000000      2.000000
 -0.125000  0.375000  0.000000      2.000000
 
 Following cartesian coordinates:
            Coordinates               Weight
  0.015032  0.004339  0.000000      2.000000
  0.045096 -0.013018  0.000000      2.000000
 -0.045096  0.039054  0.000000      2.000000
 -0.015032  0.021697  0.000000      2.000000
  0.015032  0.030376  0.000000      2.000000
  0.045096  0.013018  0.000000      2.000000
 -0.045096  0.065091  0.000000      2.000000
 -0.015032  0.047733  0.000000      2.000000
 


--------------------------------------------------------------------------------------------------------




 Dimension of arrays:
   k-points           NKPTS =      8   k-points in BZ     NKDIM =      8   number of bands    NBANDS=     24
   number of dos      NEDOS =    301   number of ions     NIONS =     14
   non local maximal  LDIM  =      4   non local SUM 2l+1 LMDIM =      8
   total plane-waves  NPLWV = 699840
   max r-space proj   IRMAX =   3655   max aug-charges    IRDMAX=  31083
   dimension x,y,z NGX =    54 NGY =   72 NGZ =  180
   dimension x,y,z NGXF=   108 NGYF=  144 NGZF=  360
   support grid    NGXF=   216 NGYF=  288 NGZF=  720
   ions per type =               4  10
   NGX,Y,Z   is equivalent  to a cutoff of  10.80, 10.80, 11.17 a.u.
   NGXF,Y,Z  is equivalent  to a cutoff of  21.59, 21.59, 22.34 a.u.

 SYSTEM =  unknown system                          
 POSCAR =   C  H                                   

 Startparameter for this run:
   NWRITE =      2    write-flag & timer
   PREC   = acc       normal or accurate (medium, high low for compatibility)
   ISTART =      1    job   : 0-new  1-cont  2-samecut
   ICHARG =      2    charge: 1-file 2-atom 10-const
   ISPIN  =      1    spin polarized calculation?
   LNONCOLLINEAR =      F non collinear calculations
   LSORBIT =      F    spin-orbit coupling
   INIWAV =      1    electr: 0-lowe 1-rand  2-diag
   LASPH  =      F    aspherical Exc in radial PAW
   METAGGA=      F    non-selfconsistent MetaGGA calc.

 Electronic Relaxation 1
   ENCUT  =  400.0 eV  29.40 Ry    5.42 a.u.  13.56 18.08 43.69*2*pi/ulx,y,z
   ENINI  =  400.0     initial cutoff
   ENAUG  =  644.9 eV  augmentation charge cutoff
   NELM   =    100;   NELMIN=  2; NELMDL=  0     # of ELM steps 
   EDIFF  = 0.1E-02   stopping-criterion for ELM
   LREAL  =      T    real-space projection
   NLSPLINE    = F    spline interpolate recip. space projectors
   LCOMPAT=      F    compatible to vasp.4.4
   GGA_COMPAT  = T    GGA compatible to vasp.4.4-vasp.4.6
   LMAXPAW     = -100 max onsite density
   LMAXMIX     =    2 max onsite mixed and CHGCAR
   VOSKOWN=      0    Vosko Wilk Nusair interpolation
   ROPT   =   -0.00025  -0.00025
 Ionic relaxation
   EDIFFG = 0.1E-01   stopping-criterion for IOM
   NSW    =      0    number of steps for IOM
   NBLOCK =      1;   KBLOCK =      1    inner block; outer block 
   IBRION =     -1    ionic relax: 0-MD 1-quasi-New 2-CG
   NFREE  =      0    steps in history (QN), initial steepest desc. (CG)
   ISIF   =      2    stress and relaxation
   IWAVPR =     10    prediction:  0-non 1-charg 2-wave 3-comb
   ISYM   =      2    0-nonsym 1-usesym 2-fastsym
   LCORR  =      T    Harris-Foulkes like correction to forces

   POTIM  = 0.5000    time-step for ionic-motion
   TEIN   =    0.0    initial temperature
   TEBEG  =    0.0;   TEEND  =   0.0 temperature during run
   SMASS  =  -3.00    Nose mass-parameter (am)
   estimated Nose-frequenzy (Omega)   =  0.10E-29 period in steps =****** mass=  -0.158E-26a.u.
   SCALEE = 1.0000    scale energy and forces
   NPACO  =    256;   APACO  = 16.0  distance and # of slots for P.C.
   PSTRESS=    0.0 pullay stress

  Mass of Ions in am
   POMASS =  12.01  1.00
  Ionic Valenz
   ZVAL   =   4.00  1.00
  Atomic Wigner-Seitz radii
   RWIGS  =  -1.00 -1.00
  virtual crystal weights 
   VCA    =   1.00  1.00
   NELECT =      26.0000    total number of electrons
   NUPDOWN=      -1.0000    fix difference up-down

 DOS related values:
   EMIN   =  10.00;   EMAX   =-10.00  energy-range for DOS
   EFERMI =   0.00
   ISMEAR =     0;   SIGMA  =   0.05  broadening in eV -4-tet -1-fermi 0-gaus

 Electronic relaxation 2 (details)
   IALGO  =     38    algorithm
   LDIAG  =      T    sub-space diagonalisation (order eigenvalues)
   LSUBROT=      F    optimize rotation matrix (better conditioning)
   TURBO    =      0    0=normal 1=particle mesh
   IRESTART =      0    0=no restart 2=restart with 2 vectors
   NREBOOT  =      0    no. of reboots
   NMIN     =      0    reboot dimension
   EREF     =   0.00    reference energy to select bands
   IMIX   =      4    mixing-type and parameters
     AMIX     =   0.40;   BMIX     =  1.00
     AMIX_MAG =   1.60;   BMIX_MAG =  1.00
     AMIN     =   0.10
     WC   =   100.;   INIMIX=   1;  MIXPRE=   1;  MAXMIX= -45

 Intra band minimization:
   WEIMIN = 0.0000     energy-eigenvalue tresh-hold
   EBREAK =  0.10E-04  absolut break condition
   DEPER  =   0.30     relativ break condition  

   TIME   =   0.40     timestep for ELM

  volume/ion in A,a.u.               =     152.79      1031.07
  Fermi-wavevector in a.u.,A,eV,Ry     =   0.376408  0.711308  1.927715  0.141683
  Thomas-Fermi vector in A             =   1.308228
 
 Write flags
   LWAVE        =      T    write WAVECAR
   LDOWNSAMPLE  =      F    k-point downsampling of WAVECAR
   LCHARG       =      F    write CHGCAR
   LVTOT        =      F    write LOCPOT, total local potential
   LVHAR        =      F    write LOCPOT, Hartree potential only
   LELF         =      F    write electronic localiz. function (ELF)
   LORBIT       =      0    0 simple, 1 ext, 2 COOP (PROOUT), +10 PAW based schemes


 Dipole corrections
   LMONO  =      F    monopole corrections only (constant potential shift)
   LDIPOL =      F    correct potential (dipole corrections)
   IDIPOL =      0    1-x, 2-y, 3-z, 4-all directions 
   EPSILON=  1.0000000 bulk dielectric constant

 Exchange correlation treatment:
   GGA     =    BF    GGA type
   LEXCH   =    17    internal setting for exchange type
   VOSKOWN=      0    Vosko Wilk Nusair interpolation
   LHFCALC =     F    Hartree Fock is set to
   LHFONE  =     F    Hartree Fock one center treatment
   AEXX    =    0.0000 exact exchange contribution

 vdW DFT:
   LUSE_VDW   =     T    switch on vdW DFT
   Zab_VDW    =******    correlation parameter
   PARAM1     =0.1234
   PARAM2     =1.0000
   PARAM3     =0.0000
   -- rVV10 --
   BPARAM     = 6.3000
   CPARAM     = 0.0093

 Linear response parameters
   LEPSILON=     F    determine dielectric tensor
   LRPA    =     F    only Hartree local field effects (RPA)
   LNABLA  =     F    use nabla operator in PAW spheres
   LVEL    =     F    velocity operator in full k-point grid
   LINTERFAST=   F  fast interpolation
   KINTER  =     0    interpolate to denser k-point grid
   CSHIFT  =0.1000    complex shift for real part using Kramers Kronig
   OMEGAMAX=  -1.0    maximum frequency
   DEG_THRESHOLD= 0.2000000E-02 threshold for treating states as degnerate
   RTIME   =   -0.100 relaxation time in fs
  (WPLASMAI=    0.000 imaginary part of plasma frequency in eV, 0.658/RTIME)
   DFIELD  = 0.0000000 0.0000000 0.0000000 field for delta impulse in time
 
 Orbital magnetization related:
   ORBITALMAG=     F  switch on orbital magnetization
   LCHIMAG   =     F  perturbation theory with respect to B field
   DQ        =  0.001000  dq finite difference perturbation B field
   LLRAUG    =     F  two centre corrections for induced B field



--------------------------------------------------------------------------------------------------------


 Static calculation
 charge density and potential will be updated during run
 non-spin polarized calculation
 Variant of blocked Davidson
 Davidson routine will perform the subspace rotation
 perform sub-space diagonalisation
    after iterative eigenvector-optimisation
 modified Broyden-mixing scheme, WC =      100.0
 initial mixing is a Kerker type mixing with AMIX =  0.4000 and BMIX =      1.0000
 Hartree-type preconditioning will be used
 using additional bands           11
 real space projection scheme for non local part
 calculate Harris-corrections to forces 
   (improved forces if not selfconsistent)
 use gradient corrections 
 use of overlap-Matrix (Vanderbilt PP)
 Gauss-broadening in eV      SIGMA  =   0.05


--------------------------------------------------------------------------------------------------------


  energy-cutoff  :      400.00
  volume of cell :     2139.05
      direct lattice vectors                 reciprocal lattice vectors
     8.315575747  0.000000000  0.000000000     0.120256255 -0.069429981  0.000000000
     5.543717165  9.601999792  0.000000000     0.000000000  0.104144972  0.000000000
     0.000000000  0.000000000 26.789639166     0.000000000  0.000000000  0.037327864

  length of vectors
     8.315575747 11.087434329 26.789639166     0.138859963  0.104144972  0.037327864


 
 old parameters found on file WAVECAR:
  energy-cutoff  :      400.00
  volume of cell :     2139.05
      direct lattice vectors                 reciprocal lattice vectors
     8.315575747  0.000000000  0.000000000     0.120256255 -0.069429981  0.000000000
     5.543717165  9.601999792  0.000000000     0.000000000  0.104144972  0.000000000
     0.000000000  0.000000000 26.789639166     0.000000000  0.000000000  0.037327864

  length of vectors

 
 k-points in units of 2pi/SCALE and weight: KPOINTS created by Atomic Simulation Env
   0.01503203  0.00433937  0.00000000       0.125
   0.04509610 -0.01301812  0.00000000       0.125
  -0.04509610  0.03905436  0.00000000       0.125
  -0.01503203  0.02169687  0.00000000       0.125
   0.01503203  0.03037562  0.00000000       0.125
   0.04509610  0.01301812  0.00000000       0.125
  -0.04509610  0.06509061  0.00000000       0.125
  -0.01503203  0.04773311  0.00000000       0.125
 
 k-points in reciprocal lattice and weights: KPOINTS created by Atomic Simulation Env
   0.12500000  0.12500000  0.00000000       0.125
   0.37500000  0.12500000  0.00000000       0.125
  -0.37500000  0.12500000  0.00000000       0.125
  -0.12500000  0.12500000  0.00000000       0.125
   0.12500000  0.37500000  0.00000000       0.125
   0.37500000  0.37500000  0.00000000       0.125
  -0.37500000  0.37500000  0.00000000       0.125
  -0.12500000  0.37500000  0.00000000       0.125
 
 position of ions in fractional coordinates (direct lattice) 
   0.46814395  0.38220267  0.34847688
   0.34539138  0.63607896  0.37020655
   0.39635916  0.49180276  0.39001272
   0.54742867  0.44642888  0.43074488
   0.35880912  0.40540409  0.32087778
   0.58437481  0.37977714  0.32833738
   0.50785740  0.27901375  0.36308776
   0.22480571  0.67772236  0.34527901
   0.27680019  0.49436993  0.40860199
   0.46115274  0.63071028  0.34911109
   0.58836234  0.34251719  0.44504519
   0.31218207  0.71097898  0.40078181
   0.67047957  0.44626850  0.41609370
   0.49531467  0.51905125  0.46228693
 
 position of ions in cartesian coordinates  (Angst):
   6.01171000  3.66991000  9.33557000
   6.39837000  6.10763000  9.91770000
   6.02237000  4.72229000 10.44830000
   7.02706000  4.28661000 11.53950000
   5.23115000  3.89269000  8.59620000
   6.96479000  3.64662000  8.79604000
   5.76990000  2.67909000  9.72699000
   5.62649000  6.50749000  9.24990000
   5.04240000  4.74694000 10.94630000
   7.33123000  6.05608000  9.35256000
   6.79139000  3.28885000 11.92260000
   6.53744000  6.82682000 10.73680000
   8.04941000  4.28507000 11.14700000
   6.99630000  4.98393000 12.38450000
 


--------------------------------------------------------------------------------------------------------


 k-point  1 :   0.1250 0.1250 0.0000  plane waves:   38866
 k-point  2 :   0.3750 0.1250 0.0000  plane waves:   38821
 k-point  3 :  -0.3750 0.1250 0.0000  plane waves:   38806
 k-point  4 :  -0.1250 0.1250 0.0000  plane waves:   38864
 k-point  5 :   0.1250 0.3750 0.0000  plane waves:   38862
 k-point  6 :   0.3750 0.3750 0.0000  plane waves:   38888
 k-point  7 :  -0.3750 0.3750 0.0000  plane waves:   38838
 k-point  8 :  -0.1250 0.3750 0.0000  plane waves:   38891

 maximum and minimum number of plane-waves per node :     19465    19374

 maximum number of plane-waves:     38891
 maximum index in each direction: 
   IXMAX=   13   IYMAX=   17   IZMAX=   43
   IXMIN=  -13   IYMIN=  -18   IZMIN=  -43


 real space projection operators:
  total allocation   :       2125.39 KBytes
  max/ min on nodes  :       1063.92       1061.47


 parallel 3D FFT for wavefunctions:
    minimum data exchange during FFTs selected (reduces bandwidth)
 parallel 3D FFT for charge:
    minimum data exchange during FFTs selected (reduces bandwidth)


 total amount of memory used by VASP MPI-rank0   137026. kBytes
=======================================================================

   base      :      30000. kBytes
   nonlr-proj:       2169. kBytes
   fftplans  :      62912. kBytes
   grid      :      34429. kBytes
   one-center:         21. kBytes
   wavefun   :       7495. kBytes
 
     INWAV:  cpu time    0.3070: real time    0.3079
 Broyden mixing: mesh for mixing (old mesh)
   NGX = 27   NGY = 37   NGZ = 87
  (NGX  =108   NGY  =144   NGZ  =360)
  gives a total of  86913 points

 initial charge density was supplied:
 charge density of overlapping atoms calculated
 number of electron      26.0000000 magnetization 
 keeping initial charge density in first step


--------------------------------------------------------------------------------------------------------


 Maximum index for non-local projection operator         1754
 Maximum index for augmentation-charges         1813 (set IRDMAX)


--------------------------------------------------------------------------------------------------------


 First call to EWALD:  gamma=   0.138
 Maximum number of real-space cells 5x 4x 2
 Maximum number of reciprocal cells 2x 2x 5

    FEWALD:  cpu time    0.0015: real time    0.0015


--------------------------------------- Iteration      1(   1)  ---------------------------------------


vdW kernel read from vdw_kernel.bindat
  0.0000  0.2424  0.5071  0.7962  1.1119  1.4567  1.8333  2.2446  2.6937  3.1842
  3.7199  4.3049  4.9438  5.6415  6.4036  7.2358  8.1446  9.1372 10.2212 11.4050
 12.6979 14.1099 15.6519 17.3360 19.1751 21.1837 23.3773 25.7729 28.3892 31.2465
 34.3669 37.7748 41.4965 45.5611 50.0000
 
    POTLOK:  cpu time   11.3070: real time   11.3640
    SETDIJ:  cpu time    0.1149: real time    0.1151
     EDDAV:  cpu time    2.7098: real time    2.7163
       DOS:  cpu time    0.0002: real time    0.0002
    CHARGE:  cpu time    0.2755: real time    0.2761
    MIXING:  cpu time    0.0074: real time    0.0075
    --------------------------------------------
      LOOP:  cpu time   14.4148: real time   14.4793

 eigenvalue-minimisations  :   576
 total energy-change (2. order) :-0.8670310E+02  (-0.3436048E+01)
 number of electron      26.0000000 magnetization 
 augmentation part        0.7009254 magnetization 

 Broyden mixing:
  rms(total) = 0.13773E+01    rms(broyden)= 0.13770E+01
  rms(prec ) = 0.14732E+01
  weight for this iteration     100.00

 Free energy of the ion-electron system (eV)
  ---------------------------------------------------
  alpha Z        PSCENC =         1.28650428
  Ewald energy   TEWEN  =      1754.05791655
  -Hartree energ DENC   =     -2190.93800702
  -exchange      EXHF   =         0.00000000
  -V(xc)+E(xc)   XCENC  =        79.05086425
  PAW double counting   =       152.91373464     -159.42092291
  entropy T*S    EENTRO =        -0.00000000
  eigenvalues    EBANDS =      -443.82901477
  atomic energy  EATOM  =       720.17582891
  Solvation  Ediel_sol  =         0.00000000
  ---------------------------------------------------
  free energy    TOTEN  =       -86.70309607 eV

  energy without entropy =      -86.70309607  energy(sigma->0) =      -86.70309607


--------------------------------------------------------------------------------------------------------




--------------------------------------- Iteration      1(   2)  ---------------------------------------


    POTLOK:  cpu time   10.8654: real time   10.8918
    SETDIJ:  cpu time    0.1183: real time    0.1185
     EDDAV:  cpu time    2.4126: real time    2.4183
       DOS:  cpu time    0.0002: real time    0.0002
    CHARGE:  cpu time    0.2740: real time    0.2747
    MIXING:  cpu time    0.0074: real time    0.0074
    --------------------------------------------
      LOOP:  cpu time   13.6778: real time   13.7109

 eigenvalue-minimisations  :   496
 total energy-change (2. order) : 0.6616359E+01  (-0.1156989E+01)
 number of electron      26.0000000 magnetization 
 augmentation part        0.6472747 magnetization 

 Broyden mixing:
  rms(total) = 0.68493E+00    rms(broyden)= 0.68487E+00
  rms(prec ) = 0.72843E+00
  weight for this iteration     100.00

 eigenvalues of (default mixing * dielectric matrix)
  average eigenvalue GAMMA=   1.6121
  1.6121

 Free energy of the ion-electron system (eV)
  ---------------------------------------------------
  alpha Z        PSCENC =         1.28650428
  Ewald energy   TEWEN  =      1754.05791655
  -Hartree energ DENC   =     -2250.85537611
  -exchange      EXHF   =         0.00000000
  -V(xc)+E(xc)   XCENC  =        82.06905925
  PAW double counting   =       237.16913256     -243.83426530
  entropy T*S    EENTRO =        -0.00000000
  eigenvalues    EBANDS =      -380.15553706
  atomic energy  EATOM  =       720.17582891
  Solvation  Ediel_sol  =         0.00000000
  ---------------------------------------------------
  free energy    TOTEN  =       -80.08673692 eV

  energy without entropy =      -80.08673692  energy(sigma->0) =      -80.08673692


--------------------------------------------------------------------------------------------------------




--------------------------------------- Iteration      1(   3)  ---------------------------------------


    POTLOK:  cpu time   10.8563: real time   10.9102
    SETDIJ:  cpu time    0.1134: real time    0.1136
     EDDAV:  cpu time    2.3607: real time    2.3663
       DOS:  cpu time    0.0002: real time    0.0002
    CHARGE:  cpu time    0.2710: real time    0.2717
    MIXING:  cpu time    0.0066: real time    0.0066
    --------------------------------------------
      LOOP:  cpu time   13.6081: real time   13.6686

 eigenvalue-minimisations  :   488
 total energy-change (2. order) : 0.1850705E+01  (-0.5263207E+00)
 number of electron      26.0000000 magnetization 
 augmentation part        0.6090566 magnetization 

 Broyden mixing:
  rms(total) = 0.28958E+00    rms(broyden)= 0.28941E+00
  rms(prec ) = 0.30296E+00
  weight for this iteration     100.00

 eigenvalues of (default mixing * dielectric matrix)
  average eigenvalue GAMMA=   1.9514
  1.9514  1.9514

 Free energy of the ion-electron system (eV)
  ---------------------------------------------------
  alpha Z        PSCENC =         1.28650428
  Ewald energy   TEWEN  =      1754.05791655
  -Hartree energ DENC   =     -2300.51884416
  -exchange      EXHF   =         0.00000000
  -V(xc)+E(xc)   XCENC  =        85.05403190
  PAW double counting   =       310.60895546     -317.31577819
  entropy T*S    EENTRO =        -0.00000000
  eigenvalues    EBANDS =      -331.58464681
  atomic energy  EATOM  =       720.17582891
  Solvation  Ediel_sol  =         0.00000000
  ---------------------------------------------------
  free energy    TOTEN  =       -78.23603206 eV

  energy without entropy =      -78.23603206  energy(sigma->0) =      -78.23603206


--------------------------------------------------------------------------------------------------------




--------------------------------------- Iteration      1(   4)  ---------------------------------------


    POTLOK:  cpu time   10.8715: real time   10.9009
    SETDIJ:  cpu time    0.1143: real time    0.1146
     EDDAV:  cpu time    2.4369: real time    2.4427
       DOS:  cpu time    0.0002: real time    0.0002
    CHARGE:  cpu time    0.2718: real time    0.2724
    MIXING:  cpu time    0.0072: real time    0.0072
    --------------------------------------------
      LOOP:  cpu time   13.7018: real time   13.7379

 eigenvalue-minimisations  :   496
 total energy-change (2. order) : 0.3042293E+00  (-0.6729243E-01)
 number of electron      26.0000000 magnetization 
 augmentation part        0.6125091 magnetization 

 Broyden mixing:
  rms(total) = 0.71737E-01    rms(broyden)= 0.71716E-01
  rms(prec ) = 0.83878E-01
  weight for this iteration     100.00

 eigenvalues of (default mixing * dielectric matrix)
  average eigenvalue GAMMA=   1.6493
  2.3508  1.2986  1.2986

 Free energy of the ion-electron system (eV)
  ---------------------------------------------------
  alpha Z        PSCENC =         1.28650428
  Ewald energy   TEWEN  =      1754.05791655
  -Hartree energ DENC   =     -2311.11475416
  -exchange      EXHF   =         0.00000000
  -V(xc)+E(xc)   XCENC  =        86.02901731
  PAW double counting   =       316.98603456     -323.63695394
  entropy T*S    EENTRO =        -0.00000000
  eigenvalues    EBANDS =      -321.71539632
  atomic energy  EATOM  =       720.17582891
  Solvation  Ediel_sol  =         0.00000000
  ---------------------------------------------------
  free energy    TOTEN  =       -77.93180280 eV

  energy without entropy =      -77.93180280  energy(sigma->0) =      -77.93180280


--------------------------------------------------------------------------------------------------------




--------------------------------------- Iteration      1(   5)  ---------------------------------------


    POTLOK:  cpu time   10.8631: real time   10.8903
    SETDIJ:  cpu time    0.1135: real time    0.1137
     EDDAV:  cpu time    2.3630: real time    2.3685
       DOS:  cpu time    0.0002: real time    0.0001
    CHARGE:  cpu time    0.2712: real time    0.2719
    MIXING:  cpu time    0.0071: real time    0.0071
    --------------------------------------------
      LOOP:  cpu time   13.6180: real time   13.6517

 eigenvalue-minimisations  :   488
 total energy-change (2. order) : 0.4029846E-01  (-0.1739351E-01)
 number of electron      26.0000000 magnetization 
 augmentation part        0.6066198 magnetization 

 Broyden mixing:
  rms(total) = 0.31464E-01    rms(broyden)= 0.31443E-01
  rms(prec ) = 0.39399E-01
  weight for this iteration     100.00

 eigenvalues of (default mixing * dielectric matrix)
  average eigenvalue GAMMA=   1.7940
  2.4045  2.4045  1.1834  1.1834

 Free energy of the ion-electron system (eV)
  ---------------------------------------------------
  alpha Z        PSCENC =         1.28650428
  Ewald energy   TEWEN  =      1754.05791655
  -Hartree energ DENC   =     -2318.88857675
  -exchange      EXHF   =         0.00000000
  -V(xc)+E(xc)   XCENC  =        86.36691775
  PAW double counting   =       324.96265202     -331.62185327
  entropy T*S    EENTRO =        -0.00000000
  eigenvalues    EBANDS =      -314.23089383
  atomic energy  EATOM  =       720.17582891
  Solvation  Ediel_sol  =         0.00000000
  ---------------------------------------------------
  free energy    TOTEN  =       -77.89150435 eV

  energy without entropy =      -77.89150435  energy(sigma->0) =      -77.89150435


--------------------------------------------------------------------------------------------------------




--------------------------------------- Iteration      1(   6)  ---------------------------------------


    POTLOK:  cpu time   10.8694: real time   10.8990
    SETDIJ:  cpu time    0.1137: real time    0.1140
     EDDAV:  cpu time    2.4227: real time    2.4285
       DOS:  cpu time    0.0002: real time    0.0002
    CHARGE:  cpu time    0.2705: real time    0.2712
    MIXING:  cpu time    0.0074: real time    0.0074
    --------------------------------------------
      LOOP:  cpu time   13.6839: real time   13.7202

 eigenvalue-minimisations  :   504
 total energy-change (2. order) : 0.1267593E-01  (-0.1995929E-02)
 number of electron      26.0000000 magnetization 
 augmentation part        0.6075937 magnetization 

 Broyden mixing:
  rms(total) = 0.18657E-01    rms(broyden)= 0.18655E-01
  rms(prec ) = 0.24357E-01
  weight for this iteration     100.00

 eigenvalues of (default mixing * dielectric matrix)
  average eigenvalue GAMMA=   1.6492
  2.4508  2.4508  1.2565  1.2565  0.8311

 Free energy of the ion-electron system (eV)
  ---------------------------------------------------
  alpha Z        PSCENC =         1.28650428
  Ewald energy   TEWEN  =      1754.05791655
  -Hartree energ DENC   =     -2322.23282849
  -exchange      EXHF   =         0.00000000
  -V(xc)+E(xc)   XCENC  =        86.35396074
  PAW double counting   =       320.31146278     -326.96167763
  entropy T*S    EENTRO =        -0.00000000
  eigenvalues    EBANDS =      -310.86999557
  atomic energy  EATOM  =       720.17582891
  Solvation  Ediel_sol  =         0.00000000
  ---------------------------------------------------
  free energy    TOTEN  =       -77.87882842 eV

  energy without entropy =      -77.87882842  energy(sigma->0) =      -77.87882842


--------------------------------------------------------------------------------------------------------




--------------------------------------- Iteration      1(   7)  ---------------------------------------


    POTLOK:  cpu time   10.9044: real time   10.9306
    SETDIJ:  cpu time    0.1137: real time    0.1140
     EDDAV:  cpu time    2.1641: real time    2.1692
       DOS:  cpu time    0.0002: real time    0.0002
    CHARGE:  cpu time    0.2717: real time    0.2724
    MIXING:  cpu time    0.0081: real time    0.0082
    --------------------------------------------
      LOOP:  cpu time   13.4622: real time   13.4945

 eigenvalue-minimisations  :   440
 total energy-change (2. order) : 0.1034180E-01  (-0.3962304E-03)
 number of electron      26.0000000 magnetization 
 augmentation part        0.6072503 magnetization 

 Broyden mixing:
  rms(total) = 0.12635E-01    rms(broyden)= 0.12634E-01
  rms(prec ) = 0.17194E-01
  weight for this iteration     100.00

 eigenvalues of (default mixing * dielectric matrix)
  average eigenvalue GAMMA=   1.9174
  3.6014  2.6403  1.8819  1.2894  1.0457  1.0457

 Free energy of the ion-electron system (eV)
  ---------------------------------------------------
  alpha Z        PSCENC =         1.28650428
  Ewald energy   TEWEN  =      1754.05791655
  -Hartree energ DENC   =     -2324.71916859
  -exchange      EXHF   =         0.00000000
  -V(xc)+E(xc)   XCENC  =        86.45678928
  PAW double counting   =       321.25206687     -327.90130252
  entropy T*S    EENTRO =        -0.00000000
  eigenvalues    EBANDS =      -308.47712141
  atomic energy  EATOM  =       720.17582891
  Solvation  Ediel_sol  =         0.00000000
  ---------------------------------------------------
  free energy    TOTEN  =       -77.86848662 eV

  energy without entropy =      -77.86848662  energy(sigma->0) =      -77.86848662


--------------------------------------------------------------------------------------------------------




--------------------------------------- Iteration      1(   8)  ---------------------------------------


    POTLOK:  cpu time   10.8938: real time   10.9235
    SETDIJ:  cpu time    0.1133: real time    0.1136
     EDDAV:  cpu time    2.1622: real time    2.1740
       DOS:  cpu time    0.0002: real time    0.0002
    CHARGE:  cpu time    0.2707: real time    0.2777
    MIXING:  cpu time    0.0081: real time    0.0081
    --------------------------------------------
      LOOP:  cpu time   13.4483: real time   13.4970

 eigenvalue-minimisations  :   440
 total energy-change (2. order) : 0.1178404E-01  (-0.1836038E-02)
 number of electron      26.0000000 magnetization 
 augmentation part        0.6056974 magnetization 

 Broyden mixing:
  rms(total) = 0.83278E-02    rms(broyden)= 0.83217E-02
  rms(prec ) = 0.96030E-02
  weight for this iteration     100.00

 eigenvalues of (default mixing * dielectric matrix)
  average eigenvalue GAMMA=   1.8054
  4.2371  2.2936  1.8683  1.2464  1.2464  0.8729  0.8729

 Free energy of the ion-electron system (eV)
  ---------------------------------------------------
  alpha Z        PSCENC =         1.28650428
  Ewald energy   TEWEN  =      1754.05791655
  -Hartree energ DENC   =     -2329.70366260
  -exchange      EXHF   =         0.00000000
  -V(xc)+E(xc)   XCENC  =        86.57769958
  PAW double counting   =       321.80010511     -328.45242549
  entropy T*S    EENTRO =        -0.00000000
  eigenvalues    EBANDS =      -303.59866892
  atomic energy  EATOM  =       720.17582891
  Solvation  Ediel_sol  =         0.00000000
  ---------------------------------------------------
  free energy    TOTEN  =       -77.85670258 eV

  energy without entropy =      -77.85670258  energy(sigma->0) =      -77.85670258


--------------------------------------------------------------------------------------------------------




--------------------------------------- Iteration      1(   9)  ---------------------------------------


    POTLOK:  cpu time   10.8802: real time   10.9207
    SETDIJ:  cpu time    0.1136: real time    0.1139
     EDDAV:  cpu time    2.2013: real time    2.2065
       DOS:  cpu time    0.0002: real time    0.0002
    --------------------------------------------
      LOOP:  cpu time   13.1953: real time   13.2412

 eigenvalue-minimisations  :   448
 total energy-change (2. order) : 0.3508893E-03  (-0.1009500E-03)
 number of electron      26.0000000 magnetization 
 augmentation part        0.6056974 magnetization 

 Free energy of the ion-electron system (eV)
  ---------------------------------------------------
  alpha Z        PSCENC =         1.28650428
  Ewald energy   TEWEN  =      1754.05791655
  -Hartree energ DENC   =     -2330.07683831
  -exchange      EXHF   =         0.00000000
  -V(xc)+E(xc)   XCENC  =        86.59348912
  PAW double counting   =       321.92278688     -328.57440281
  entropy T*S    EENTRO =        -0.00000000
  eigenvalues    EBANDS =      -303.24163630
  atomic energy  EATOM  =       720.17582891
  Solvation  Ediel_sol  =         0.00000000
  ---------------------------------------------------
  free energy    TOTEN  =       -77.85635169 eV

  energy without entropy =      -77.85635169  energy(sigma->0) =      -77.85635169


--------------------------------------------------------------------------------------------------------




 average (electrostatic) potential at core
  the test charge radii are     0.6991  0.5201
  (the norm of the test charge is              1.0000)
       1 -58.4441       2 -58.4650       3 -58.7627       4 -58.4042       5 -42.5217
       6 -42.6386       7 -42.6263       8 -42.5843       9 -42.5422      10 -42.6603
      11 -42.5803      12 -42.5823      13 -42.5807      14 -42.5392
 
 
 
 E-fermi :  -7.5108     XC(G=0):  -0.8533     alpha+bet : -0.3168


 k-point     1 :       0.1250    0.1250    0.0000
  band No.  band energies     occupation 
      1     -19.9987      2.00000
      2     -16.9719      2.00000
      3     -16.8897      2.00000
      4     -13.8548      2.00000
      5     -11.4139      2.00000
      6     -10.5679      2.00000
      7     -10.4804      2.00000
      8      -9.4522      2.00000
      9      -9.3862      2.00000
     10      -8.8068      2.00000
     11      -8.0607      2.00000
     12      -7.9804      2.00000
     13      -7.7582      2.00000
     14      -1.0408      0.00000
     15      -0.4366      0.00000
     16       0.0523      0.00000
     17       0.3037      0.00000
     18       0.4446      0.00000
     19       0.4995      0.00000
     20       0.6248      0.00000
     21       0.8207      0.00000
     22       0.8756      0.00000
     23       1.1146      0.00000
     24       1.1935      0.00000

 k-point     2 :       0.3750    0.1250    0.0000
  band No.  band energies     occupation 
      1     -19.9987      2.00000
      2     -16.9718      2.00000
      3     -16.8898      2.00000
      4     -13.8548      2.00000
      5     -11.4142      2.00000
      6     -10.5679      2.00000
      7     -10.4803      2.00000
      8      -9.4518      2.00000
      9      -9.3863      2.00000
     10      -8.8067      2.00000
     11      -8.0604      2.00000
     12      -7.9790      2.00000
     13      -7.7575      2.00000
     14      -0.7752      0.00000
     15      -0.1686      0.00000
     16      -0.0063      0.00000
     17       0.1677      0.00000
     18       0.3281      0.00000
     19       0.4020      0.00000
     20       0.5966      0.00000
     21       0.7014      0.00000
     22       0.8120      0.00000
     23       0.9932      0.00000
     24       1.1230      0.00000

 k-point     3 :      -0.3750    0.1250    0.0000
  band No.  band energies     occupation 
      1     -19.9987      2.00000
      2     -16.9719      2.00000
      3     -16.8897      2.00000
      4     -13.8548      2.00000
      5     -11.4142      2.00000
      6     -10.5678      2.00000
      7     -10.4803      2.00000
      8      -9.4518      2.00000
      9      -9.3862      2.00000
     10      -8.8067      2.00000
     11      -8.0607      2.00000
     12      -7.9790      2.00000
     13      -7.7575      2.00000
     14      -0.5847      0.00000
     15      -0.2053      0.00000
     16      -0.1369      0.00000
     17       0.0188      0.00000
     18       0.3542      0.00000
     19       0.4428      0.00000
     20       0.4945      0.00000
     21       0.5501      0.00000
     22       0.9079      0.00000
     23       0.9331      0.00000
     24       0.9936      0.00000

 k-point     4 :      -0.1250    0.1250    0.0000
  band No.  band energies     occupation 
      1     -19.9987      2.00000
      2     -16.9718      2.00000
      3     -16.8898      2.00000
      4     -13.8547      2.00000
      5     -11.4139      2.00000
      6     -10.5679      2.00000
      7     -10.4804      2.00000
      8      -9.4522      2.00000
      9      -9.3861      2.00000
     10      -8.8067      2.00000
     11      -8.0611      2.00000
     12      -7.9805      2.00000
     13      -7.7583      2.00000
     14      -0.9723      0.00000
     15      -0.3761      0.00000
     16      -0.0825      0.00000
     17       0.1295      0.00000
     18       0.4506      0.00000
     19       0.5613      0.00000
     20       0.6352      0.00000
     21       0.8271      0.00000
     22       0.8899      0.00000
     23       1.0311      0.00000
     24       1.2227      0.00000

 k-point     5 :       0.1250    0.3750    0.0000
  band No.  band energies     occupation 
      1     -19.9987      2.00000
      2     -16.9719      2.00000
      3     -16.8898      2.00000
      4     -13.8547      2.00000
      5     -11.4138      2.00000
      6     -10.5679      2.00000
      7     -10.4804      2.00000
      8      -9.4521      2.00000
      9      -9.3860      2.00000
     10      -8.8068      2.00000
     11      -8.0612      2.00000
     12      -7.9805      2.00000
     13      -7.7582      2.00000
     14      -0.9045      0.00000
     15      -0.3144      0.00000
     16      -0.2556      0.00000
     17       0.1895      0.00000
     18       0.2873      0.00000
     19       0.4077      0.00000
     20       0.6290      0.00000
     21       0.8442      0.00000
     22       0.9422      0.00000
     23       1.0561      0.00000
     24       1.2091      0.00000

 k-point     6 :       0.3750    0.3750    0.0000
  band No.  band energies     occupation 
      1     -19.9987      2.00000
      2     -16.9719      2.00000
      3     -16.8898      2.00000
      4     -13.8549      2.00000
      5     -11.4144      2.00000
      6     -10.5679      2.00000
      7     -10.4804      2.00000
      8      -9.4519      2.00000
      9      -9.3865      2.00000
     10      -8.8069      2.00000
     11      -8.0603      2.00000
     12      -7.9789      2.00000
     13      -7.7574      2.00000
     14      -0.7759      0.00000
     15      -0.2329      0.00000
     16      -0.1573      0.00000
     17       0.2852      0.00000
     18       0.3534      0.00000
     19       0.3926      0.00000
     20       0.6886      0.00000
     21       0.7843      0.00000
     22       0.8924      0.00000
     23       1.0265      0.00000
     24       1.1084      0.00000

 k-point     7 :      -0.3750    0.3750    0.0000
  band No.  band energies     occupation 
      1     -19.9987      2.00000
      2     -16.9719      2.00000
      3     -16.8898      2.00000
      4     -13.8548      2.00000
      5     -11.4142      2.00000
      6     -10.5679      2.00000
      7     -10.4803      2.00000
      8      -9.4518      2.00000
      9      -9.3863      2.00000
     10      -8.8068      2.00000
     11      -8.0606      2.00000
     12      -7.9789      2.00000
     13      -7.7575      2.00000
     14      -0.5868      0.00000
     15      -0.3028      0.00000
     16      -0.1531      0.00000
     17       0.0200      0.00000
     18       0.2937      0.00000
     19       0.4077      0.00000
     20       0.5383      0.00000
     21       0.8384      0.00000
     22       0.9256      0.00000
     23       0.9879      0.00000
     24       1.1380      0.00000

 k-point     8 :      -0.1250    0.3750    0.0000
  band No.  band energies     occupation 
      1     -19.9987      2.00000
      2     -16.9719      2.00000
      3     -16.8898      2.00000
      4     -13.8546      2.00000
      5     -11.4139      2.00000
      6     -10.5679      2.00000
      7     -10.4805      2.00000
      8      -9.4522      2.00000
      9      -9.3860      2.00000
     10      -8.8068      2.00000
     11      -8.0617      2.00000
     12      -7.9807      2.00000
     13      -7.7584      2.00000
     14      -0.7183      0.00000
     15      -0.5529      0.00000
     16      -0.1347      0.00000
     17      -0.0024      0.00000
     18       0.3861      0.00000
     19       0.4339      0.00000
     20       0.5457      0.00000
     21       0.8106      0.00000
     22       0.9155      0.00000
     23       1.0806      0.00000
     24       1.1856      0.00000


--------------------------------------------------------------------------------------------------------


 soft charge-density along one line, spin component           1
         0         1         2         3         4         5         6         7         8         9
 total charge-density along one line
 
 pseudopotential strength for first ion, spin component:           1
 10.251   0.020  -0.000  -0.000  -0.000   0.000   0.000  -0.000
  0.020  -0.001   0.000   0.000   0.000   0.000   0.000  -0.000
 -0.000   0.000  -4.237   0.001  -0.000  -0.015   0.000  -0.000
 -0.000   0.000   0.001  -4.237   0.000   0.000  -0.015   0.000
 -0.000   0.000  -0.000   0.000  -4.238  -0.000   0.000  -0.015
  0.000   0.000  -0.015   0.000  -0.000  -0.772   0.000  -0.000
  0.000   0.000   0.000  -0.015   0.000   0.000  -0.772   0.000
 -0.000  -0.000  -0.000   0.000  -0.015  -0.000   0.000  -0.772
 total augmentation occupancy for first ion, spin component:           1
  1.453  -1.184  -0.002   0.003   0.005  -0.004  -0.005  -0.001
 -1.184   1.042   0.018   0.025   0.010  -0.003  -0.002   0.003
 -0.002   0.018   1.116  -0.021   0.004   0.196  -0.001   0.002
  0.003   0.025  -0.021   1.113   0.003  -0.001   0.195  -0.002
  0.005   0.010   0.004   0.003   1.130   0.002  -0.001   0.197
 -0.004  -0.003   0.196  -0.001   0.002   0.036   0.001   0.001
 -0.005  -0.002  -0.001   0.195  -0.001   0.001   0.036  -0.001
 -0.001   0.003   0.002  -0.002   0.197   0.001  -0.001   0.035


------------------------ aborting loop because EDIFF is reached ----------------------------------------


    CHARGE:  cpu time    0.2707: real time    0.2713
    FORLOC:  cpu time    0.0298: real time    0.0298
    FORNL :  cpu time    1.3361: real time    1.3393
    STRESS:  cpu time    4.1422: real time    4.1520
    FORHAR:  cpu time    0.0789: real time    0.0791
    MIXING:  cpu time    0.0073: real time    0.0074
    OFIELD:  cpu time    0.0000: real time    0.0000

  FORCE on cell =-STRESS in cart. coord.  units (eV):
  Direction    XX          YY          ZZ          XY          YZ          ZX
  --------------------------------------------------------------------------------------
  Alpha Z     1.28650     1.28650     1.28650
  Ewald    1217.72476  1370.69516  -834.36241     8.48932    -5.63582   117.09253
  Hartree  1434.71053  1530.63740  -634.71009     2.55655    -4.30582    94.60009
  E(xc)     -94.57597   -94.91440   -94.82364     0.02258     0.00379    -0.21103
  Local   -2865.66025 -3119.83331  1251.68886   -10.60427     9.98871  -215.22242
  n-local   -43.93393   -42.99468   -43.28696     0.06098    -0.00620     0.31923
  augment    -0.17013    -0.11658    -0.12793    -0.00177    -0.00022     0.03137
  Kinetic   349.27145   353.90568   353.03820    -0.67570    -0.05595     3.76026
  Fock        0.00000     0.00000     0.00000     0.00000     0.00000     0.00000
  -------------------------------------------------------------------------------------
  Total      -1.34703    -1.33422    -1.29748    -0.15231    -0.01152     0.37004
  in kB      -1.00894    -0.99935    -0.97183    -0.11408    -0.00863     0.27716
  external pressure =       -0.99 kB  Pullay stress =        0.00 kB


 VOLUME and BASIS-vectors are now :
 -----------------------------------------------------------------------------
  energy-cutoff  :      400.00
  volume of cell :     2139.05
      direct lattice vectors                 reciprocal lattice vectors
     8.315575747  0.000000000  0.000000000     0.120256255 -0.069429981  0.000000000
     5.543717165  9.601999792  0.000000000     0.000000000  0.104144972  0.000000000
     0.000000000  0.000000000 26.789639166     0.000000000  0.000000000  0.037327864

  length of vectors
     8.315575747 11.087434329 26.789639166     0.138859963  0.104144972  0.037327864


 FORCES acting on ions
    electron-ion (+dipol)            ewald-force                    non-local-force                 convergence-correction
 -----------------------------------------------------------------------------------------------
   0.214E+02 0.959E+02 0.111E+03   -.215E+02 -.954E+02 -.110E+03   -.611E+00 -.404E+00 -.909E+00   0.458E-02 0.632E-01 0.634E-01
   -.108E+02 -.131E+03 0.467E+02   0.104E+02 0.130E+03 -.463E+02   0.424E-01 0.777E+00 -.283E+00   -.209E-01 -.801E-01 0.312E-01
   0.674E+02 -.614E+01 -.293E+02   -.674E+02 0.608E+01 0.294E+02   0.552E+00 -.339E+00 0.354E+00   0.431E-01 0.366E-02 -.174E-01
   -.678E+02 0.393E+02 -.131E+03   0.671E+02 -.390E+02 0.131E+03   0.644E+00 -.810E-01 0.840E+00   -.697E-01 0.264E-01 -.557E-01
   0.458E+02 0.169E+01 0.598E+02   -.497E+02 -.538E+00 -.636E+02   0.398E+01 -.108E+01 0.377E+01   0.110E-01 -.258E-03 0.743E-02
   -.498E+02 0.171E+02 0.521E+02   0.547E+02 -.173E+02 -.548E+02   -.487E+01 0.137E+00 0.284E+01   -.135E-01 0.354E-02 0.702E-02
   0.177E+02 0.676E+02 -.519E+01   -.188E+02 -.729E+02 0.722E+01   0.131E+01 0.517E+01 -.198E+01   0.301E-02 0.132E-01 -.193E-02
   0.406E+02 -.396E+02 0.454E+02   -.445E+02 0.417E+02 -.489E+02   0.395E+01 -.209E+01 0.343E+01   0.108E-01 -.783E-02 0.747E-02
   0.679E+02 -.262E+01 -.365E+02   -.731E+02 0.283E+01 0.389E+02   0.498E+01 -.101E+00 -.260E+01   0.385E-01 -.369E-03 -.149E-01
   -.547E+02 -.189E+02 0.429E+02   0.597E+02 0.187E+02 -.459E+02   -.485E+01 0.210E+00 0.296E+01   -.169E-01 -.187E-02 0.748E-02
   0.401E+01 0.594E+02 -.446E+02   -.515E+01 -.646E+02 0.466E+02   0.119E+01 0.515E+01 -.202E+01   -.213E-02 0.110E-01 -.312E-02
   -.796E+01 -.579E+02 -.403E+02   0.864E+01 0.615E+02 0.444E+02   -.717E+00 -.370E+01 -.414E+01   -.269E-02 -.121E-01 -.672E-02
   -.676E+02 0.663E+01 0.534E+00   0.730E+02 -.672E+01 -.251E+01   -.528E+01 0.545E-02 0.197E+01   -.219E-01 0.201E-02 0.382E-02
   -.670E+01 -.320E+02 -.709E+02   0.662E+01 0.355E+02 0.753E+02   0.139E+00 -.356E+01 -.436E+01   -.420E-02 -.494E-02 -.798E-02
 -----------------------------------------------------------------------------------------------
   -.414E+00 -.121E+00 0.112E+00   0.195E-13 0.782E-13 0.995E-13   0.453E+00 0.104E+00 -.128E+00   -.408E-01 0.156E-01 0.199E-01
 
 
 POSITION                                       TOTAL-FORCE (eV/Angst)
 -----------------------------------------------------------------------------------
      6.01171      3.66991      9.33557        -0.629792      0.209111     -0.306099
      6.39837      6.10763      9.91770        -0.326084      0.168222      0.079728
      6.02237      4.72229     10.44830         0.639341     -0.401166      0.447095
      7.02706      4.28661     11.53950        -0.133086      0.246451      0.057284
      5.23115      3.89269      8.59620         0.072025      0.067441     -0.034332
      6.96479      3.64662      8.79604         0.030306     -0.109971      0.139145
      5.76990      2.67909      9.72699         0.201905     -0.083838      0.042745
      5.62649      6.50749      9.24990         0.035960     -0.021795     -0.002374
      5.04240      4.74694     10.94630        -0.092671      0.116105     -0.245984
      7.33123      6.05608      9.35256         0.117603      0.009498     -0.029212
      6.79139      3.28885     11.92260         0.049606     -0.004299     -0.042248
      6.53744      6.82682     10.73680        -0.035153     -0.084287     -0.104822
      8.04941      4.28507     11.14700         0.018063     -0.078547      0.001074
      6.99630      4.98393     12.38450         0.051977     -0.032925     -0.002001
 -----------------------------------------------------------------------------------
    total drift:                               -0.002485     -0.000603      0.003694


--------------------------------------------------------------------------------------------------------



  FREE ENERGIE OF THE ION-ELECTRON SYSTEM (eV)
  ---------------------------------------------------
  free  energy   TOTEN  =       -77.85635169 eV

  energy  without entropy=      -77.85635169  energy(sigma->0) =      -77.85635169
 


--------------------------------------------------------------------------------------------------------


    POTLOK:  cpu time   10.9840: real time   11.0104


--------------------------------------------------------------------------------------------------------


 stress matrix after NEB project (eV)
     -1.34703     -0.15231      0.37004
     -0.15231     -1.33422     -0.01152
      0.37004     -0.01152     -1.29748
  FORCES: max atom, RMS     0.877260    0.353783
  FORCE total and by dimension    1.323735    0.639341
  Stress total and by dimension    2.366133    1.347025
 writing wavefunctions
     LOOP+:  cpu time  140.0937: real time  140.8560
    4ORBIT:  cpu time    0.0000: real time    0.0000

 total amount of memory used by VASP MPI-rank0   137026. kBytes
=======================================================================

   base      :      30000. kBytes
   nonlr-proj:       2169. kBytes
   fftplans  :      62912. kBytes
   grid      :      34429. kBytes
   one-center:         21. kBytes
   wavefun   :       7495. kBytes
 
  
  
 General timing and accounting informations for this job:
 ========================================================
  
                  Total CPU time used (sec):      144.626
                            User time (sec):      142.004
                          System time (sec):        2.623
                         Elapsed time (sec):      146.124
  
                   Maximum memory used (kb):      484360.
                   Average memory used (kb):           0.
  
                          Minor page faults:       111956
                          Major page faults:            0
                 Voluntary context switches:         2503
