<?xml version="1.0" encoding="ISO-8859-1"?>
<modeling>
 <generator>
  <i name="program" type="string">vasp </i>
  <i name="version" type="string">5.4.4.18Apr17-6-g9f103f2a35  </i>
  <i name="subversion" type="string">(build Dec 31 2018 11:41:54) complex            parallel </i>
  <i name="platform" type="string">LinuxIFC </i>
  <i name="date" type="string">2022 10 14 </i>
  <i name="time" type="string">05:03:01 </i>
 </generator>
 <incar>
  <i type="int" name="ISTART">     1</i>
  <i type="string" name="PREC">acc</i>
  <i type="string" name="ALGO"> normal</i>
  <i type="logical" name="ADDGRID"> T  </i>
  <i type="int" name="ISPIN">     1</i>
  <i type="int" name="ICHARG">     2</i>
  <i type="int" name="NELM">   100</i>
  <i type="int" name="IBRION">    -1</i>
  <i name="EDIFF">      0.00100000</i>
  <i name="ENCUT">    400.00000000</i>
  <i type="string" name="LREAL"> Auto</i>
  <i type="int" name="ISMEAR">     0</i>
  <i name="SIGMA">      0.05000000</i>
  <i type="logical" name="LWAVE"> T  </i>
  <i type="logical" name="LCHARG"> F  </i>
  <v type="int" name="KPOINT_BSE">    -1     0     0     0</v>
  <i type="int" name="NELM">   100</i>
  <i type="string" name="GGA"> BF</i>
  <i type="logical" name="LUSE_VDW"> T  </i>
  <i name="Zab_VDW">     -1.88670000</i>
 </incar>
 <structure name="primitive_cell" >
  <crystal>
   <varray name="basis" >
    <v>       8.31557575       0.00000000       0.00000000 </v>
    <v>       5.54371716       9.60199979       0.00000000 </v>
    <v>       0.00000000       0.00000000      26.78963917 </v>
   </varray>
   <i name="volume">   2139.04972377 </i>
   <varray name="rec_basis" >
    <v>       0.12025626      -0.06942998       0.00000000 </v>
    <v>       0.00000000       0.10414497       0.00000000 </v>
    <v>       0.00000000       0.00000000       0.03732786 </v>
   </varray>
  </crystal>
  <varray name="positions" >
   <v>       0.46814395       0.38220267       0.34847688 </v>
   <v>      -0.49214260       0.27901375       0.36308776 </v>
   <v>      -0.41562519       0.37977714       0.32833738 </v>
   <v>       0.35880912       0.40540409       0.32087778 </v>
   <v>       0.39635916       0.49180276       0.39001272 </v>
   <v>       0.27680019       0.49436993       0.40860199 </v>
   <v>      -0.45257133       0.44642888       0.43074488 </v>
   <v>       0.34539138      -0.36392104       0.37020655 </v>
   <v>       0.46115274      -0.36928972       0.34911109 </v>
   <v>      -0.41163766       0.34251719       0.44504519 </v>
   <v>      -0.32952043       0.44626850       0.41609370 </v>
   <v>       0.22480571      -0.32227764       0.34527901 </v>
   <v>       0.49531467      -0.48094875       0.46228693 </v>
   <v>       0.31218207      -0.28902102       0.40078181 </v>
  </varray>
 </structure>
 <varray name="primitive_index" >
  <v type="int" >        1 </v>
  <v type="int" >        7 </v>
  <v type="int" >        6 </v>
  <v type="int" >        5 </v>
  <v type="int" >        3 </v>
  <v type="int" >        9 </v>
  <v type="int" >        4 </v>
  <v type="int" >        2 </v>
  <v type="int" >       10 </v>
  <v type="int" >       11 </v>
  <v type="int" >       13 </v>
  <v type="int" >        8 </v>
  <v type="int" >       14 </v>
  <v type="int" >       12 </v>
 </varray>
 <kpoints>
  <generation param="Monkhorst-Pack">
   <v type="int" name="divisions">       4        4        1 </v>
   <v name="usershift">      0.00000000       0.00000000       0.00000000 </v>
   <v name="genvec1">      0.25000000      -0.00000000       0.00000000 </v>
   <v name="genvec2">      0.00000000       0.25000000       0.00000000 </v>
   <v name="genvec3">      0.00000000       0.00000000       1.00000000 </v>
   <v name="shift">      0.50000000       0.50000000       0.00000000 </v>
  </generation>
  <varray name="kpointlist" >
   <v>       0.12500000       0.12500000       0.00000000 </v>
   <v>       0.37500000       0.12500000       0.00000000 </v>
   <v>      -0.37500000       0.12500000       0.00000000 </v>
   <v>      -0.12500000       0.12500000       0.00000000 </v>
   <v>       0.12500000       0.37500000       0.00000000 </v>
   <v>       0.37500000       0.37500000       0.00000000 </v>
   <v>      -0.37500000       0.37500000       0.00000000 </v>
   <v>      -0.12500000       0.37500000       0.00000000 </v>
  </varray>
  <varray name="weights" >
   <v>       0.12500000 </v>
   <v>       0.12500000 </v>
   <v>       0.12500000 </v>
   <v>       0.12500000 </v>
   <v>       0.12500000 </v>
   <v>       0.12500000 </v>
   <v>       0.12500000 </v>
   <v>       0.12500000 </v>
  </varray>
 </kpoints>
 <parameters>
  <separator name="general" >
   <i type="string" name="SYSTEM">unknown system</i>
   <i type="logical" name="LCOMPAT"> F  </i>
  </separator>
  <separator name="electronic" >
   <i type="string" name="PREC">acc</i>
   <i name="ENMAX">    400.00000000</i>
   <i name="ENAUG">    644.87300000</i>
   <i name="EDIFF">      0.00100000</i>
   <i type="int" name="IALGO">    38</i>
   <i type="int" name="IWAVPR">    10</i>
   <i type="int" name="NBANDS">    24</i>
   <i name="NELECT">     26.00000000</i>
   <i type="int" name="TURBO">     0</i>
   <i type="int" name="IRESTART">     0</i>
   <i type="int" name="NREBOOT">     0</i>
   <i type="int" name="NMIN">     0</i>
   <i name="EREF">      0.00000000</i>
   <separator name="electronic smearing" >
    <i type="int" name="ISMEAR">     0</i>
    <i name="SIGMA">      0.05000000</i>
    <i name="KSPACING">      0.50000000</i>
    <i type="logical" name="KGAMMA"> T  </i>
   </separator>
   <separator name="electronic projectors" >
    <i type="logical" name="LREAL"> T  </i>
    <v name="ROPT">     -0.00025000     -0.00025000</v>
    <i type="int" name="LMAXPAW">  -100</i>
    <i type="int" name="LMAXMIX">     2</i>
    <i type="logical" name="NLSPLINE"> F  </i>
   </separator>
   <separator name="electronic startup" >
    <i type="int" name="ISTART">     1</i>
    <i type="int" name="ICHARG">     2</i>
    <i type="int" name="INIWAV">     1</i>
   </separator>
   <separator name="electronic spin" >
    <i type="int" name="ISPIN">     1</i>
    <i type="logical" name="LNONCOLLINEAR"> F  </i>
    <v name="MAGMOM">      1.00000000      1.00000000      1.00000000      1.00000000      1.00000000      1.00000000      1.00000000      1.00000000      1.00000000      1.00000000      1.00000000      1.00000000      1.00000000      1.00000000</v>
    <i name="NUPDOWN">     -1.00000000</i>
    <i type="logical" name="LSORBIT"> F  </i>
    <v name="SAXIS">      0.00000000      0.00000000      1.00000000</v>
    <i type="logical" name="LSPIRAL"> F  </i>
    <v name="QSPIRAL">      0.00000000      0.00000000      0.00000000</v>
    <i type="logical" name="LZEROZ"> F  </i>
   </separator>
   <separator name="electronic exchange-correlation" >
    <i type="logical" name="LASPH"> F  </i>
    <i type="logical" name="LMETAGGA"> F  </i>
   </separator>
   <separator name="electronic convergence" >
    <i type="int" name="NELM">   100</i>
    <i type="int" name="NELMDL">     0</i>
    <i type="int" name="NELMIN">     2</i>
    <i name="ENINI">    400.00000000</i>
    <separator name="electronic convergence detail" >
     <i type="logical" name="LDIAG"> T  </i>
     <i type="logical" name="LSUBROT"> F  </i>
     <i name="WEIMIN">      0.00000000</i>
     <i name="EBREAK">      0.00001042</i>
     <i name="DEPER">      0.30000000</i>
     <i type="int" name="NRMM">     4</i>
     <i name="TIME">      0.40000000</i>
    </separator>
   </separator>
   <separator name="electronic mixer" >
    <i name="AMIX">      0.40000000</i>
    <i name="BMIX">      1.00000000</i>
    <i name="AMIN">      0.10000000</i>
    <i name="AMIX_MAG">      1.60000000</i>
    <i name="BMIX_MAG">      1.00000000</i>
    <separator name="electronic mixer details" >
     <i type="int" name="IMIX">     4</i>
     <i type="logical" name="MIXFIRST"> F  </i>
     <i type="int" name="MAXMIX">   -45</i>
     <i name="WC">    100.00000000</i>
     <i type="int" name="INIMIX">     1</i>
     <i type="int" name="MIXPRE">     1</i>
     <i type="int" name="MREMOVE">     5</i>
    </separator>
   </separator>
   <separator name="electronic dipolcorrection" >
    <i type="logical" name="LDIPOL"> F  </i>
    <i type="logical" name="LMONO"> F  </i>
    <i type="int" name="IDIPOL">     0</i>
    <i name="EPSILON">      1.00000000</i>
    <v name="DIPOL">   -100.00000000   -100.00000000   -100.00000000</v>
    <i name="EFIELD">      0.00000000</i>
   </separator>
  </separator>
  <separator name="grids" >
   <i type="int" name="NGX">    54</i>
   <i type="int" name="NGY">    72</i>
   <i type="int" name="NGZ">   180</i>
   <i type="int" name="NGXF">   108</i>
   <i type="int" name="NGYF">   144</i>
   <i type="int" name="NGZF">   360</i>
   <i type="logical" name="ADDGRID"> T  </i>
  </separator>
  <separator name="ionic" >
   <i type="int" name="NSW">     0</i>
   <i type="int" name="IBRION">    -1</i>
   <i type="int" name="MDALGO">     0</i>
   <i type="int" name="ISIF">     2</i>
   <i name="PSTRESS">      0.00000000</i>
   <i name="EDIFFG">      0.01000000</i>
   <i type="int" name="NFREE">     0</i>
   <i name="POTIM">      0.50000000</i>
   <i name="SMASS">     -3.00000000</i>
   <i name="SCALEE">      1.00000000</i>
  </separator>
  <separator name="ionic md" >
   <i name="TEBEG">      0.00010000</i>
   <i name="TEEND">      0.00010000</i>
   <i type="int" name="NBLOCK">     1</i>
   <i type="int" name="KBLOCK">     1</i>
   <i type="int" name="NPACO">   256</i>
   <i name="APACO">     16.00000000</i>
  </separator>
  <separator name="symmetry" >
   <i type="int" name="ISYM">     2</i>
   <i name="SYMPREC">      0.00001000</i>
  </separator>
  <separator name="dos" >
   <i type="int" name="LORBIT">     0</i>
   <v name="RWIGS">     -1.00000000     -1.00000000</v>
   <i type="int" name="NEDOS">   301</i>
   <i name="EMIN">     10.00000000</i>
   <i name="EMAX">    -10.00000000</i>
   <i name="EFERMI">      0.00000000</i>
  </separator>
  <separator name="writing" >
   <i type="int" name="NWRITE">     2</i>
   <i type="logical" name="LWAVE"> T  </i>
   <i type="logical" name="LDOWNSAMPLE"> F  </i>
   <i type="logical" name="LCHARG"> F  </i>
   <i type="logical" name="LPARD"> F  </i>
   <i type="logical" name="LVTOT"> F  </i>
   <i type="logical" name="LVHAR"> F  </i>
   <i type="logical" name="LELF"> F  </i>
   <i type="logical" name="LOPTICS"> F  </i>
   <v name="STM">      0.00000000      0.00000000      0.00000000      0.00000000      0.00000000      0.00000000      0.00000000</v>
  </separator>
  <separator name="performance" >
   <i type="int" name="NPAR">     8</i>
   <i type="int" name="NSIM">     4</i>
   <i type="int" name="NBLK">    -1</i>
   <i type="logical" name="LPLANE"> T  </i>
   <i type="logical" name="LSCALAPACK"> T  </i>
   <i type="logical" name="LSCAAWARE"> F  </i>
   <i type="logical" name="LSCALU"> F  </i>
   <i type="logical" name="LASYNC"> F  </i>
   <i type="logical" name="LORBITALREAL"> F  </i>
  </separator>
  <separator name="miscellaneous" >
   <i type="int" name="IDIOT">     3</i>
   <i type="int" name="ISPECIAL">     0</i>
   <i type="logical" name="LMUSIC"> F  </i>
   <v name="POMASS">     12.01100000      1.00000000</v>
   <v name="DARWINR">      0.00000000      0.00000000</v>
   <v name="DARWINV">      1.00000000      1.00000000</v>
   <i type="logical" name="LCORR"> T  </i>
  </separator>
  <i type="logical" name="GGA_COMPAT"> T  </i>
  <i type="logical" name="LBERRY"> F  </i>
  <i type="int" name="ICORELEVEL">     0</i>
  <i type="logical" name="LDAU"> F  </i>
  <i type="int" name="I_CONSTRAINED_M">     0</i>
  <separator name="electronic exchange-correlation" >
   <i type="string" name="GGA">BF</i>
   <i type="int" name="VOSKOWN">     0</i>
   <i type="logical" name="LHFCALC"> F  </i>
   <i type="string" name="PRECFOCK"></i>
   <i type="logical" name="LSYMGRAD"> F  </i>
   <i type="logical" name="LHFONE"> F  </i>
   <i type="logical" name="LRHFCALC"> F  </i>
   <i type="logical" name="LTHOMAS"> F  </i>
   <i type="logical" name="LMODELHF"> F  </i>
   <i name="ENCUT4O">     -1.00000000</i>
   <i type="int" name="EXXOEP">     0</i>
   <i type="int" name="FOURORBIT">     0</i>
   <i name="AEXX">      0.00000000</i>
   <i name="HFALPHA">      0.00000000</i>
   <i name="MCALPHA">      0.00000000</i>
   <i name="ALDAX">      1.00000000</i>
   <i name="AGGAX">      1.00000000</i>
   <i name="ALDAC">      1.00000000</i>
   <i name="AGGAC">      1.00000000</i>
   <i type="int" name="NKREDX">     1</i>
   <i type="int" name="NKREDY">     1</i>
   <i type="int" name="NKREDZ">     1</i>
   <i type="logical" name="SHIFTRED"> F  </i>
   <i type="logical" name="ODDONLY"> F  </i>
   <i type="logical" name="EVENONLY"> F  </i>
   <i type="int" name="LMAXFOCK">     0</i>
   <i type="int" name="NMAXFOCKAE">     0</i>
   <i type="logical" name="LFOCKAEDFT"> F  </i>
   <i name="HFSCREEN">      0.00000000</i>
   <i name="HFSCREENC">      0.00000000</i>
   <i type="int" name="NBANDSGWLOW">     0</i>
  </separator>
  <separator name="vdW DFT" >
   <i type="logical" name="LUSE_VDW"> T  </i>
   <i name="Zab_VDW">     -1.88670000</i>
   <i name="PARAM1">      0.12340000</i>
   <i name="PARAM2">      1.00000000</i>
   <i name="PARAM3">      0.00000000</i>
  </separator>
  <separator name="model GW" >
   <i type="int" name="MODEL_GW">     0</i>
   <i name="MODEL_EPS0">     91.67355959</i>
   <i name="MODEL_ALPHA">      1.00000000</i>
  </separator>
  <separator name="linear response parameters" >
   <i type="logical" name="LEPSILON"> F  </i>
   <i type="logical" name="LRPA"> F  </i>
   <i type="logical" name="LNABLA"> F  </i>
   <i type="logical" name="LVEL"> F  </i>
   <i type="int" name="KINTER">     0</i>
   <i name="CSHIFT">      0.10000000</i>
   <i name="OMEGAMAX">     -1.00000000</i>
   <i name="DEG_THRESHOLD">      0.00200000</i>
   <i name="RTIME">     -0.10000000</i>
   <i name="WPLASMAI">      0.00000000</i>
   <v name="DFIELD">      0.00000000      0.00000000      0.00000000</v>
   <v name="WPLASMA">      0.00000000      0.00000000      0.00000000      0.00000000      0.00000000      0.00000000      0.00000000      0.00000000      0.00000000</v>
  </separator>
  <separator name="orbital magnetization" >
   <i type="logical" name="NUCIND"> F  </i>
   <v name="MAGPOS">      0.00000000      0.00000000      0.00000000</v>
   <i type="logical" name="LNICSALL"> T  </i>
   <i type="logical" name="ORBITALMAG"> F  </i>
   <i type="logical" name="LMAGBLOCH"> F  </i>
   <i type="logical" name="LCHIMAG"> F  </i>
   <i type="logical" name="LGAUGE"> T  </i>
   <i type="int" name="MAGATOM">     0</i>
   <v name="MAGDIPOL">      0.00000000      0.00000000      0.00000000</v>
   <v name="AVECCONST">      0.00000000      0.00000000      0.00000000</v>
  </separator>
  <separator name="response functions" >
   <i type="logical" name="LADDER"> F  </i>
   <i type="logical" name="LRPAFORCE"> F  </i>
   <i type="logical" name="LFXC"> F  </i>
   <i type="logical" name="LHARTREE"> T  </i>
   <i type="int" name="IBSE">     0</i>
   <v type="int" name="KPOINT">    -1     0     0     0</v>
   <i type="logical" name="LTCTE"> F  </i>
   <i type="logical" name="LTETE"> F  </i>
   <i type="logical" name="LTRIPLET"> F  </i>
   <i type="logical" name="LFXCEPS"> F  </i>
   <i type="logical" name="LFXHEG"> F  </i>
   <i type="int" name="NATURALO">     2</i>
   <i type="logical" name="L2ORDER"> F  </i>
   <i type="logical" name="LMP2LT"> F  </i>
   <i type="logical" name="LUSEW"> F  </i>
   <i name="ENCUTGW">     -2.00000000</i>
   <i name="ENCUTGWSOFT">     -2.00000000</i>
   <i name="ENCUTLF">     -1.00000000</i>
   <i type="int" name="LMAXMP2">    -1</i>
   <i name="SCISSOR">      0.00000000</i>
   <i type="int" name="NOMEGA">     0</i>
   <i type="int" name="NOMEGAR">     0</i>
   <i type="int" name="NBANDSGW">    -1</i>
   <i type="int" name="NBANDSO">    -1</i>
   <i type="int" name="NBANDSV">    -1</i>
   <i type="int" name="NELM">   100</i>
   <i type="int" name="NELMHF">     1</i>
   <i type="int" name="DIM">     3</i>
   <i type="int" name="ANTIRES">     0</i>
   <i name="OMEGAMAX">    -30.00000000</i>
   <i name="OMEGAMIN">    -30.00000000</i>
   <i name="OMEGATL">   -200.00000000</i>
   <i type="int" name="OMEGAGRID">   140</i>
   <i name="CSHIFT">     -0.10000000</i>
   <i type="logical" name="SELFENERGY"> F  </i>
   <i type="logical" name="LSPECTRAL"> F  </i>
   <i type="logical" name="LSPECTRALGW"> F  </i>
   <i type="logical" name="LSINGLES"> F  </i>
   <i type="logical" name="LFERMIGW"> F  </i>
   <i type="logical" name="ODDONLYGW"> F  </i>
   <i type="logical" name="EVENONLYGW"> F  </i>
   <i type="int" name="NKREDLFX">     1</i>
   <i type="int" name="NKREDLFY">     1</i>
   <i type="int" name="NKREDLFZ">     1</i>
   <i type="int" name="MAXMEM">  2800</i>
   <i type="int" name="TELESCOPE">     0</i>
   <i type="int" name="TAUPAR">     1</i>
   <i type="int" name="OMEGAPAR">    -1</i>
   <i name="LAMBDA">      1.00000000</i>
  </separator>
  <separator name="External order field" >
   <i name="OFIELD_KAPPA">      0.00000000</i>
   <v name="OFIELD_K">      0.00000000      0.00000000      0.00000000</v>
   <i name="OFIELD_Q6_NEAR">      0.00000000</i>
   <i name="OFIELD_Q6_FAR">      0.00000000</i>
   <i name="OFIELD_A">      0.00000000</i>
  </separator>
 </parameters>
 <atominfo>
  <atoms>      14 </atoms>
  <types>       2 </types>
  <array name="atoms" >
   <dimension dim="1">ion</dimension>
   <field type="string">element</field>
   <field type="int">atomtype</field>
   <set>
    <rc><c>C </c><c>   1</c></rc>
    <rc><c>C </c><c>   1</c></rc>
    <rc><c>C </c><c>   1</c></rc>
    <rc><c>C </c><c>   1</c></rc>
    <rc><c>H </c><c>   2</c></rc>
    <rc><c>H </c><c>   2</c></rc>
    <rc><c>H </c><c>   2</c></rc>
    <rc><c>H </c><c>   2</c></rc>
    <rc><c>H </c><c>   2</c></rc>
    <rc><c>H </c><c>   2</c></rc>
    <rc><c>H </c><c>   2</c></rc>
    <rc><c>H </c><c>   2</c></rc>
    <rc><c>H </c><c>   2</c></rc>
    <rc><c>H </c><c>   2</c></rc>
   </set>
  </array>
  <array name="atomtypes" >
   <dimension dim="1">type</dimension>
   <field type="int">atomspertype</field>
   <field type="string">element</field>
   <field>mass</field>
   <field>valence</field>
   <field type="string">pseudopotential</field>
   <set>
    <rc><c>   4</c><c>C </c><c>     12.01100000</c><c>      4.00000000</c><c> PAW_PBE C 08Apr2002                    </c></rc>
    <rc><c>  10</c><c>H </c><c>      1.00000000</c><c>      1.00000000</c><c> PAW_PBE H 15Jun2001                    </c></rc>
   </set>
  </array>
 </atominfo>
 <structure name="initialpos" >
  <crystal>
   <varray name="basis" >
    <v>       8.31557575       0.00000000       0.00000000 </v>
    <v>       5.54371716       9.60199979       0.00000000 </v>
    <v>       0.00000000       0.00000000      26.78963917 </v>
   </varray>
   <i name="volume">   2139.04972377 </i>
   <varray name="rec_basis" >
    <v>       0.12025626      -0.06942998       0.00000000 </v>
    <v>       0.00000000       0.10414497       0.00000000 </v>
    <v>       0.00000000       0.00000000       0.03732786 </v>
   </varray>
  </crystal>
  <varray name="positions" >
   <v>       0.46814395       0.38220267       0.34847688 </v>
   <v>       0.34539138       0.63607896       0.37020655 </v>
   <v>       0.39635916       0.49180276       0.39001272 </v>
   <v>       0.54742867       0.44642888       0.43074488 </v>
   <v>       0.35880912       0.40540409       0.32087778 </v>
   <v>       0.58437481       0.37977714       0.32833738 </v>
   <v>       0.50785740       0.27901375       0.36308776 </v>
   <v>       0.22480571       0.67772236       0.34527901 </v>
   <v>       0.27680019       0.49436993       0.40860199 </v>
   <v>       0.46115274       0.63071028       0.34911109 </v>
   <v>       0.58836234       0.34251719       0.44504519 </v>
   <v>       0.31218207       0.71097898       0.40078181 </v>
   <v>       0.67047957       0.44626850       0.41609370 </v>
   <v>       0.49531467       0.51905125       0.46228693 </v>
  </varray>
 </structure>
 <calculation>
  <scstep>
   <time name="dav">    2.71    2.72</time>
   <time name="total">   14.41   14.48</time>
   <energy>
    <i name="alphaZ">      1.28650428 </i>
    <i name="ewald">   1754.05791655 </i>
    <i name="hartreedc">  -2190.93800702 </i>
    <i name="XCdc">     79.05086425 </i>
    <i name="pawpsdc">    152.91373464 </i>
    <i name="pawaedc">   -159.42092291 </i>
    <i name="eentropy">     -0.00000000 </i>
    <i name="bandstr">   -443.82901477 </i>
    <i name="atom">    720.17582891 </i>
    <i name="e_fr_energy">    -86.70309607 </i>
    <i name="e_wo_entrp">    -86.70309607 </i>
    <i name="e_0_energy">    -86.70309607 </i>
   </energy>
  </scstep>
  <scstep>
   <time name="dav">    2.41    2.42</time>
   <time name="total">   13.68   13.71</time>
   <energy>
    <i name="e_fr_energy">    -80.08673692 </i>
    <i name="e_wo_entrp">    -80.08673692 </i>
    <i name="e_0_energy">    -80.08673692 </i>
   </energy>
  </scstep>
  <scstep>
   <time name="dav">    2.36    2.37</time>
   <time name="total">   13.61   13.67</time>
   <energy>
    <i name="e_fr_energy">    -78.23603206 </i>
    <i name="e_wo_entrp">    -78.23603206 </i>
    <i name="e_0_energy">    -78.23603206 </i>
   </energy>
  </scstep>
  <scstep>
   <time name="dav">    2.44    2.44</time>
   <time name="total">   13.70   13.74</time>
   <energy>
    <i name="e_fr_energy">    -77.93180280 </i>
    <i name="e_wo_entrp">    -77.93180280 </i>
    <i name="e_0_energy">    -77.93180280 </i>
   </energy>
  </scstep>
  <scstep>
   <time name="dav">    2.36    2.37</time>
   <time name="total">   13.62   13.65</time>
   <energy>
    <i name="e_fr_energy">    -77.89150435 </i>
    <i name="e_wo_entrp">    -77.89150435 </i>
    <i name="e_0_energy">    -77.89150435 </i>
   </energy>
  </scstep>
  <scstep>
   <time name="dav">    2.42    2.43</time>
   <time name="total">   13.68   13.72</time>
   <energy>
    <i name="e_fr_energy">    -77.87882842 </i>
    <i name="e_wo_entrp">    -77.87882842 </i>
    <i name="e_0_energy">    -77.87882842 </i>
   </energy>
  </scstep>
  <scstep>
   <time name="dav">    2.16    2.17</time>
   <time name="total">   13.46   13.49</time>
   <energy>
    <i name="e_fr_energy">    -77.86848662 </i>
    <i name="e_wo_entrp">    -77.86848662 </i>
    <i name="e_0_energy">    -77.86848662 </i>
   </energy>
  </scstep>
  <scstep>
   <time name="dav">    2.16    2.17</time>
   <time name="total">   13.45   13.50</time>
   <energy>
    <i name="e_fr_energy">    -77.85670258 </i>
    <i name="e_wo_entrp">    -77.85670258 </i>
    <i name="e_0_energy">    -77.85670258 </i>
   </energy>
  </scstep>
  <scstep>
   <time name="dav">    2.20    2.21</time>
   <time name="total">   13.20   13.24</time>
   <energy>
    <i name="alphaZ">      1.28650428 </i>
    <i name="ewald">   1754.05791655 </i>
    <i name="hartreedc">  -2330.07683831 </i>
    <i name="XCdc">     86.59348912 </i>
    <i name="pawpsdc">    321.92278688 </i>
    <i name="pawaedc">   -328.57440281 </i>
    <i name="eentropy">     -0.00000000 </i>
    <i name="bandstr">   -303.24163630 </i>
    <i name="atom">    720.17582891 </i>
    <i name="e_fr_energy">    -77.85635169 </i>
    <i name="e_wo_entrp">    -77.85635169 </i>
    <i name="e_0_energy">    -77.85635169 </i>
   </energy>
  </scstep>
  <structure>
   <crystal>
    <varray name="basis" >
     <v>       8.31557575       0.00000000       0.00000000 </v>
     <v>       5.54371716       9.60199979       0.00000000 </v>
     <v>       0.00000000       0.00000000      26.78963917 </v>
    </varray>
    <i name="volume">   2139.04972377 </i>
    <varray name="rec_basis" >
     <v>       0.12025626      -0.06942998       0.00000000 </v>
     <v>       0.00000000       0.10414497       0.00000000 </v>
     <v>       0.00000000       0.00000000       0.03732786 </v>
    </varray>
   </crystal>
   <varray name="positions" >
    <v>       0.46814395       0.38220267       0.34847688 </v>
    <v>       0.34539138       0.63607896       0.37020655 </v>
    <v>       0.39635916       0.49180276       0.39001272 </v>
    <v>       0.54742867       0.44642888       0.43074488 </v>
    <v>       0.35880912       0.40540409       0.32087778 </v>
    <v>       0.58437481       0.37977714       0.32833738 </v>
    <v>       0.50785740       0.27901375       0.36308776 </v>
    <v>       0.22480571       0.67772236       0.34527901 </v>
    <v>       0.27680019       0.49436993       0.40860199 </v>
    <v>       0.46115274       0.63071028       0.34911109 </v>
    <v>       0.58836234       0.34251719       0.44504519 </v>
    <v>       0.31218207       0.71097898       0.40078181 </v>
    <v>       0.67047957       0.44626850       0.41609370 </v>
    <v>       0.49531467       0.51905125       0.46228693 </v>
   </varray>
  </structure>
  <varray name="forces" >
   <v>      -0.62979159       0.20911126      -0.30609866 </v>
   <v>      -0.32608421       0.16822162       0.07972825 </v>
   <v>       0.63934095      -0.40116635       0.44709478 </v>
   <v>      -0.13308554       0.24645091       0.05728394 </v>
   <v>       0.07202451       0.06744085      -0.03433245 </v>
   <v>       0.03030564      -0.10997103       0.13914485 </v>
   <v>       0.20190487      -0.08383843       0.04274542 </v>
   <v>       0.03595972      -0.02179490      -0.00237364 </v>
   <v>      -0.09267054       0.11610473      -0.24598352 </v>
   <v>       0.11760271       0.00949812      -0.02921180 </v>
   <v>       0.04960628      -0.00429885      -0.04224817 </v>
   <v>      -0.03515317      -0.08428689      -0.10482165 </v>
   <v>       0.01806325      -0.07854651       0.00107357 </v>
   <v>       0.05197712      -0.03292455      -0.00200092 </v>
  </varray>
  <varray name="stress" >
   <v>      -1.00894010      -0.11407911       0.27716351 </v>
   <v>      -0.11407911      -0.99934860      -0.00862944 </v>
   <v>       0.27716351      -0.00862944      -0.97182927 </v>
  </varray>
  <energy>
   <i name="e_fr_energy">    -77.85635169 </i>
   <i name="e_wo_entrp">    -77.85635169 </i>
   <i name="e_0_energy">     -0.00000000 </i>
  </energy>
  <time name="totalsc">  140.09  140.86</time>
  <eigenvalues>
   <array>
    <dimension dim="1">band</dimension>
    <dimension dim="2">kpoint</dimension>
    <dimension dim="3">spin</dimension>
    <field>eigene</field>
    <field>occ</field>
    <set>
     <set comment="spin 1">
      <set comment="kpoint 1">
       <r>  -19.9987    1.0000 </r>
       <r>  -16.9719    1.0000 </r>
       <r>  -16.8897    1.0000 </r>
       <r>  -13.8548    1.0000 </r>
       <r>  -11.4139    1.0000 </r>
       <r>  -10.5679    1.0000 </r>
       <r>  -10.4804    1.0000 </r>
       <r>   -9.4522    1.0000 </r>
       <r>   -9.3862    1.0000 </r>
       <r>   -8.8068    1.0000 </r>
       <r>   -8.0607    1.0000 </r>
       <r>   -7.9804    1.0000 </r>
       <r>   -7.7582    1.0000 </r>
       <r>   -1.0408    0.0000 </r>
       <r>   -0.4366    0.0000 </r>
       <r>    0.0523    0.0000 </r>
       <r>    0.3037    0.0000 </r>
       <r>    0.4446    0.0000 </r>
       <r>    0.4995    0.0000 </r>
       <r>    0.6248    0.0000 </r>
       <r>    0.8207    0.0000 </r>
       <r>    0.8756    0.0000 </r>
       <r>    1.1146    0.0000 </r>
       <r>    1.1935    0.0000 </r>
      </set>
      <set comment="kpoint 2">
       <r>  -19.9987    1.0000 </r>
       <r>  -16.9718    1.0000 </r>
       <r>  -16.8898    1.0000 </r>
       <r>  -13.8548    1.0000 </r>
       <r>  -11.4142    1.0000 </r>
       <r>  -10.5679    1.0000 </r>
       <r>  -10.4803    1.0000 </r>
       <r>   -9.4518    1.0000 </r>
       <r>   -9.3863    1.0000 </r>
       <r>   -8.8067    1.0000 </r>
       <r>   -8.0604    1.0000 </r>
       <r>   -7.9790    1.0000 </r>
       <r>   -7.7575    1.0000 </r>
       <r>   -0.7752    0.0000 </r>
       <r>   -0.1686    0.0000 </r>
       <r>   -0.0063    0.0000 </r>
       <r>    0.1677    0.0000 </r>
       <r>    0.3281    0.0000 </r>
       <r>    0.4020    0.0000 </r>
       <r>    0.5966    0.0000 </r>
       <r>    0.7014    0.0000 </r>
       <r>    0.8120    0.0000 </r>
       <r>    0.9932    0.0000 </r>
       <r>    1.1230    0.0000 </r>
      </set>
      <set comment="kpoint 3">
       <r>  -19.9987    1.0000 </r>
       <r>  -16.9719    1.0000 </r>
       <r>  -16.8897    1.0000 </r>
       <r>  -13.8548    1.0000 </r>
       <r>  -11.4142    1.0000 </r>
       <r>  -10.5678    1.0000 </r>
       <r>  -10.4803    1.0000 </r>
       <r>   -9.4518    1.0000 </r>
       <r>   -9.3862    1.0000 </r>
       <r>   -8.8067    1.0000 </r>
       <r>   -8.0607    1.0000 </r>
       <r>   -7.9790    1.0000 </r>
       <r>   -7.7575    1.0000 </r>
       <r>   -0.5847    0.0000 </r>
       <r>   -0.2053    0.0000 </r>
       <r>   -0.1369    0.0000 </r>
       <r>    0.0188    0.0000 </r>
       <r>    0.3542    0.0000 </r>
       <r>    0.4428    0.0000 </r>
       <r>    0.4945    0.0000 </r>
       <r>    0.5501    0.0000 </r>
       <r>    0.9079    0.0000 </r>
       <r>    0.9331    0.0000 </r>
       <r>    0.9936    0.0000 </r>
      </set>
      <set comment="kpoint 4">
       <r>  -19.9987    1.0000 </r>
       <r>  -16.9718    1.0000 </r>
       <r>  -16.8898    1.0000 </r>
       <r>  -13.8547    1.0000 </r>
       <r>  -11.4139    1.0000 </r>
       <r>  -10.5679    1.0000 </r>
       <r>  -10.4804    1.0000 </r>
       <r>   -9.4522    1.0000 </r>
       <r>   -9.3861    1.0000 </r>
       <r>   -8.8067    1.0000 </r>
       <r>   -8.0611    1.0000 </r>
       <r>   -7.9805    1.0000 </r>
       <r>   -7.7583    1.0000 </r>
       <r>   -0.9723    0.0000 </r>
       <r>   -0.3761    0.0000 </r>
       <r>   -0.0825    0.0000 </r>
       <r>    0.1295    0.0000 </r>
       <r>    0.4506    0.0000 </r>
       <r>    0.5613    0.0000 </r>
       <r>    0.6352    0.0000 </r>
       <r>    0.8271    0.0000 </r>
       <r>    0.8899    0.0000 </r>
       <r>    1.0311    0.0000 </r>
       <r>    1.2227    0.0000 </r>
      </set>
      <set comment="kpoint 5">
       <r>  -19.9987    1.0000 </r>
       <r>  -16.9719    1.0000 </r>
       <r>  -16.8898    1.0000 </r>
       <r>  -13.8547    1.0000 </r>
       <r>  -11.4138    1.0000 </r>
       <r>  -10.5679    1.0000 </r>
       <r>  -10.4804    1.0000 </r>
       <r>   -9.4521    1.0000 </r>
       <r>   -9.3860    1.0000 </r>
       <r>   -8.8068    1.0000 </r>
       <r>   -8.0612    1.0000 </r>
       <r>   -7.9805    1.0000 </r>
       <r>   -7.7582    1.0000 </r>
       <r>   -0.9045    0.0000 </r>
       <r>   -0.3144    0.0000 </r>
       <r>   -0.2556    0.0000 </r>
       <r>    0.1895    0.0000 </r>
       <r>    0.2873    0.0000 </r>
       <r>    0.4077    0.0000 </r>
       <r>    0.6290    0.0000 </r>
       <r>    0.8442    0.0000 </r>
       <r>    0.9422    0.0000 </r>
       <r>    1.0561    0.0000 </r>
       <r>    1.2091    0.0000 </r>
      </set>
      <set comment="kpoint 6">
       <r>  -19.9987    1.0000 </r>
       <r>  -16.9719    1.0000 </r>
       <r>  -16.8898    1.0000 </r>
       <r>  -13.8549    1.0000 </r>
       <r>  -11.4144    1.0000 </r>
       <r>  -10.5679    1.0000 </r>
       <r>  -10.4804    1.0000 </r>
       <r>   -9.4519    1.0000 </r>
       <r>   -9.3865    1.0000 </r>
       <r>   -8.8069    1.0000 </r>
       <r>   -8.0603    1.0000 </r>
       <r>   -7.9789    1.0000 </r>
       <r>   -7.7574    1.0000 </r>
       <r>   -0.7759    0.0000 </r>
       <r>   -0.2329    0.0000 </r>
       <r>   -0.1573    0.0000 </r>
       <r>    0.2852    0.0000 </r>
       <r>    0.3534    0.0000 </r>
       <r>    0.3926    0.0000 </r>
       <r>    0.6886    0.0000 </r>
       <r>    0.7843    0.0000 </r>
       <r>    0.8924    0.0000 </r>
       <r>    1.0265    0.0000 </r>
       <r>    1.1084    0.0000 </r>
      </set>
      <set comment="kpoint 7">
       <r>  -19.9987    1.0000 </r>
       <r>  -16.9719    1.0000 </r>
       <r>  -16.8898    1.0000 </r>
       <r>  -13.8548    1.0000 </r>
       <r>  -11.4142    1.0000 </r>
       <r>  -10.5679    1.0000 </r>
       <r>  -10.4803    1.0000 </r>
       <r>   -9.4518    1.0000 </r>
       <r>   -9.3863    1.0000 </r>
       <r>   -8.8068    1.0000 </r>
       <r>   -8.0606    1.0000 </r>
       <r>   -7.9789    1.0000 </r>
       <r>   -7.7575    1.0000 </r>
       <r>   -0.5868    0.0000 </r>
       <r>   -0.3028    0.0000 </r>
       <r>   -0.1531    0.0000 </r>
       <r>    0.0200    0.0000 </r>
       <r>    0.2937    0.0000 </r>
       <r>    0.4077    0.0000 </r>
       <r>    0.5383    0.0000 </r>
       <r>    0.8384    0.0000 </r>
       <r>    0.9256    0.0000 </r>
       <r>    0.9879    0.0000 </r>
       <r>    1.1380    0.0000 </r>
      </set>
      <set comment="kpoint 8">
       <r>  -19.9987    1.0000 </r>
       <r>  -16.9719    1.0000 </r>
       <r>  -16.8898    1.0000 </r>
       <r>  -13.8546    1.0000 </r>
       <r>  -11.4139    1.0000 </r>
       <r>  -10.5679    1.0000 </r>
       <r>  -10.4805    1.0000 </r>
       <r>   -9.4522    1.0000 </r>
       <r>   -9.3860    1.0000 </r>
       <r>   -8.8068    1.0000 </r>
       <r>   -8.0617    1.0000 </r>
       <r>   -7.9807    1.0000 </r>
       <r>   -7.7584    1.0000 </r>
       <r>   -0.7183    0.0000 </r>
       <r>   -0.5529    0.0000 </r>
       <r>   -0.1347    0.0000 </r>
       <r>   -0.0024    0.0000 </r>
       <r>    0.3861    0.0000 </r>
       <r>    0.4339    0.0000 </r>
       <r>    0.5457    0.0000 </r>
       <r>    0.8106    0.0000 </r>
       <r>    0.9155    0.0000 </r>
       <r>    1.0806    0.0000 </r>
       <r>    1.1856    0.0000 </r>
      </set>
     </set>
    </set>
   </array>
  </eigenvalues>
  <separator name="orbital magnetization" >
   <v name="MAGDIPOLOUT">      0.00000000      0.00000000      0.00000000</v>
  </separator>
  <dos>
   <i name="efermi">     -7.51077538 </i>
   <total>
    <array>
     <dimension dim="1">gridpoints</dimension>
     <dimension dim="2">spin</dimension>
     <field>energy</field>
     <field>total</field>
     <field>integrated</field>
     <set>
      <set comment="spin 1">
       <r>   -21.0598     0.0000     0.0000 </r>
       <r>   -20.9820     0.0000     0.0000 </r>
       <r>   -20.9042     0.0000     0.0000 </r>
       <r>   -20.8263     0.0000     0.0000 </r>
       <r>   -20.7485     0.0000     0.0000 </r>
       <r>   -20.6707     0.0000     0.0000 </r>
       <r>   -20.5929     0.0000     0.0000 </r>
       <r>   -20.5151     0.0000     0.0000 </r>
       <r>   -20.4373     0.0000     0.0000 </r>
       <r>   -20.3595     0.0000     0.0000 </r>
       <r>   -20.2817     0.0000     0.0000 </r>
       <r>   -20.2039     0.0000     0.0000 </r>
       <r>   -20.1260     0.0041     0.0003 </r>
       <r>   -20.0482     2.0676     0.1612 </r>
       <r>   -19.9704    18.1845     1.5762 </r>
       <r>   -19.8926     5.4122     1.9973 </r>
       <r>   -19.8148     0.0346     2.0000 </r>
       <r>   -19.7370     0.0000     2.0000 </r>
       <r>   -19.6592     0.0000     2.0000 </r>
       <r>   -19.5814     0.0000     2.0000 </r>
       <r>   -19.5035     0.0000     2.0000 </r>
       <r>   -19.4257     0.0000     2.0000 </r>
       <r>   -19.3479     0.0000     2.0000 </r>
       <r>   -19.2701     0.0000     2.0000 </r>
       <r>   -19.1923     0.0000     2.0000 </r>
       <r>   -19.1145     0.0000     2.0000 </r>
       <r>   -19.0367     0.0000     2.0000 </r>
       <r>   -18.9589     0.0000     2.0000 </r>
       <r>   -18.8810     0.0000     2.0000 </r>
       <r>   -18.8032     0.0000     2.0000 </r>
       <r>   -18.7254     0.0000     2.0000 </r>
       <r>   -18.6476     0.0000     2.0000 </r>
       <r>   -18.5698     0.0000     2.0000 </r>
       <r>   -18.4920     0.0000     2.0000 </r>
       <r>   -18.4142     0.0000     2.0000 </r>
       <r>   -18.3364     0.0000     2.0000 </r>
       <r>   -18.2586     0.0000     2.0000 </r>
       <r>   -18.1807     0.0000     2.0000 </r>
       <r>   -18.1029     0.0000     2.0000 </r>
       <r>   -18.0251     0.0000     2.0000 </r>
       <r>   -17.9473     0.0000     2.0000 </r>
       <r>   -17.8695     0.0000     2.0000 </r>
       <r>   -17.7917     0.0000     2.0000 </r>
       <r>   -17.7139     0.0000     2.0000 </r>
       <r>   -17.6361     0.0000     2.0000 </r>
       <r>   -17.5582     0.0000     2.0000 </r>
       <r>   -17.4804     0.0000     2.0000 </r>
       <r>   -17.4026     0.0000     2.0000 </r>
       <r>   -17.3248     0.0000     2.0000 </r>
       <r>   -17.2470     0.0000     2.0000 </r>
       <r>   -17.1692     0.0000     2.0000 </r>
       <r>   -17.0914     0.0093     2.0007 </r>
       <r>   -17.0136     3.0580     2.2387 </r>
       <r>   -16.9358    21.1742     3.8863 </r>
       <r>   -16.8579    22.4181     5.6307 </r>
       <r>   -16.7801     4.7216     5.9981 </r>
       <r>   -16.7023     0.0248     6.0000 </r>
       <r>   -16.6245     0.0000     6.0000 </r>
       <r>   -16.5467     0.0000     6.0000 </r>
       <r>   -16.4689     0.0000     6.0000 </r>
       <r>   -16.3911     0.0000     6.0000 </r>
       <r>   -16.3133     0.0000     6.0000 </r>
       <r>   -16.2354     0.0000     6.0000 </r>
       <r>   -16.1576     0.0000     6.0000 </r>
       <r>   -16.0798     0.0000     6.0000 </r>
       <r>   -16.0020     0.0000     6.0000 </r>
       <r>   -15.9242     0.0000     6.0000 </r>
       <r>   -15.8464     0.0000     6.0000 </r>
       <r>   -15.7686     0.0000     6.0000 </r>
       <r>   -15.6908     0.0000     6.0000 </r>
       <r>   -15.6129     0.0000     6.0000 </r>
       <r>   -15.5351     0.0000     6.0000 </r>
       <r>   -15.4573     0.0000     6.0000 </r>
       <r>   -15.3795     0.0000     6.0000 </r>
       <r>   -15.3017     0.0000     6.0000 </r>
       <r>   -15.2239     0.0000     6.0000 </r>
       <r>   -15.1461     0.0000     6.0000 </r>
       <r>   -15.0683     0.0000     6.0000 </r>
       <r>   -14.9905     0.0000     6.0000 </r>
       <r>   -14.9126     0.0000     6.0000 </r>
       <r>   -14.8348     0.0000     6.0000 </r>
       <r>   -14.7570     0.0000     6.0000 </r>
       <r>   -14.6792     0.0000     6.0000 </r>
       <r>   -14.6014     0.0000     6.0000 </r>
       <r>   -14.5236     0.0000     6.0000 </r>
       <r>   -14.4458     0.0000     6.0000 </r>
       <r>   -14.3680     0.0000     6.0000 </r>
       <r>   -14.2901     0.0000     6.0000 </r>
       <r>   -14.2123     0.0000     6.0000 </r>
       <r>   -14.1345     0.0000     6.0000 </r>
       <r>   -14.0567     0.0000     6.0000 </r>
       <r>   -13.9789     0.0057     6.0004 </r>
       <r>   -13.9011     2.4381     6.1902 </r>
       <r>   -13.8233    18.4647     7.6269 </r>
       <r>   -13.7455     4.7688     7.9980 </r>
       <r>   -13.6676     0.0256     8.0000 </r>
       <r>   -13.5898     0.0000     8.0000 </r>
       <r>   -13.5120     0.0000     8.0000 </r>
       <r>   -13.4342     0.0000     8.0000 </r>
       <r>   -13.3564     0.0000     8.0000 </r>
       <r>   -13.2786     0.0000     8.0000 </r>
       <r>   -13.2008     0.0000     8.0000 </r>
       <r>   -13.1230     0.0000     8.0000 </r>
       <r>   -13.0452     0.0000     8.0000 </r>
       <r>   -12.9673     0.0000     8.0000 </r>
       <r>   -12.8895     0.0000     8.0000 </r>
       <r>   -12.8117     0.0000     8.0000 </r>
       <r>   -12.7339     0.0000     8.0000 </r>
       <r>   -12.6561     0.0000     8.0000 </r>
       <r>   -12.5783     0.0000     8.0000 </r>
       <r>   -12.5005     0.0000     8.0000 </r>
       <r>   -12.4227     0.0000     8.0000 </r>
       <r>   -12.3448     0.0000     8.0000 </r>
       <r>   -12.2670     0.0000     8.0000 </r>
       <r>   -12.1892     0.0000     8.0000 </r>
       <r>   -12.1114     0.0000     8.0000 </r>
       <r>   -12.0336     0.0000     8.0000 </r>
       <r>   -11.9558     0.0000     8.0000 </r>
       <r>   -11.8780     0.0000     8.0000 </r>
       <r>   -11.8002     0.0000     8.0000 </r>
       <r>   -11.7223     0.0000     8.0000 </r>
       <r>   -11.6445     0.0000     8.0000 </r>
       <r>   -11.5667     0.0002     8.0000 </r>
       <r>   -11.4889     0.4397     8.0342 </r>
       <r>   -11.4111    13.2668     9.0665 </r>
       <r>   -11.3333    11.7090     9.9776 </r>
       <r>   -11.2555     0.2872    10.0000 </r>
       <r>   -11.1777     0.0001    10.0000 </r>
       <r>   -11.0999     0.0000    10.0000 </r>
       <r>   -11.0220     0.0000    10.0000 </r>
       <r>   -10.9442     0.0000    10.0000 </r>
       <r>   -10.8664     0.0000    10.0000 </r>
       <r>   -10.7886     0.0000    10.0000 </r>
       <r>   -10.7108     0.0007    10.0001 </r>
       <r>   -10.6330     0.8437    10.0657 </r>
       <r>   -10.5552    16.0649    11.3157 </r>
       <r>   -10.4774    22.3843    13.0575 </r>
       <r>   -10.3995    11.8265    13.9778 </r>
       <r>   -10.3217     0.2859    14.0000 </r>
       <r>   -10.2439     0.0001    14.0000 </r>
       <r>   -10.1661     0.0000    14.0000 </r>
       <r>   -10.0883     0.0000    14.0000 </r>
       <r>   -10.0105     0.0000    14.0000 </r>
       <r>    -9.9327     0.0000    14.0000 </r>
       <r>    -9.8549     0.0000    14.0000 </r>
       <r>    -9.7770     0.0000    14.0000 </r>
       <r>    -9.6992     0.0000    14.0000 </r>
       <r>    -9.6214     0.0000    14.0000 </r>
       <r>    -9.5436     0.1230    14.0096 </r>
       <r>    -9.4658     9.1371    14.7205 </r>
       <r>    -9.3880    27.8718    16.8893 </r>
       <r>    -9.3102    13.8679    17.9684 </r>
       <r>    -9.2324     0.4060    18.0000 </r>
       <r>    -9.1546     0.0002    18.0000 </r>
       <r>    -9.0767     0.0000    18.0000 </r>
       <r>    -8.9989     0.0000    18.0000 </r>
       <r>    -8.9211     0.0157    18.0012 </r>
       <r>    -8.8433     3.8621    18.3017 </r>
       <r>    -8.7655    18.7055    19.7572 </r>
       <r>    -8.6877     3.1100    19.9992 </r>
       <r>    -8.6099     0.0097    20.0000 </r>
       <r>    -8.5321     0.0000    20.0000 </r>
       <r>    -8.4542     0.0000    20.0000 </r>
       <r>    -8.3764     0.0000    20.0000 </r>
       <r>    -8.2986     0.0000    20.0000 </r>
       <r>    -8.2208     0.0001    20.0000 </r>
       <r>    -8.1430     0.2586    20.0201 </r>
       <r>    -8.0652    11.5333    20.9176 </r>
       <r>    -7.9874    24.0783    22.7911 </r>
       <r>    -7.9096    14.9286    23.9528 </r>
       <r>    -7.8317     1.0776    24.0366 </r>
       <r>    -7.7539    13.5170    25.0884 </r>
       <r>    -7.6761    11.4482    25.9792 </r>
       <r>    -7.5983     0.2671    26.0000 </r>
       <r>    -7.5205     0.0001    26.0000 </r>
       <r>    -7.4427     0.0000    26.0000 </r>
       <r>    -7.3649     0.0000    26.0000 </r>
       <r>    -7.2871     0.0000    26.0000 </r>
       <r>    -7.2093     0.0000    26.0000 </r>
       <r>    -7.1314     0.0000    26.0000 </r>
       <r>    -7.0536     0.0000    26.0000 </r>
       <r>    -6.9758     0.0000    26.0000 </r>
       <r>    -6.8980     0.0000    26.0000 </r>
       <r>    -6.8202     0.0000    26.0000 </r>
       <r>    -6.7424     0.0000    26.0000 </r>
       <r>    -6.6646     0.0000    26.0000 </r>
       <r>    -6.5868     0.0000    26.0000 </r>
       <r>    -6.5089     0.0000    26.0000 </r>
       <r>    -6.4311     0.0000    26.0000 </r>
       <r>    -6.3533     0.0000    26.0000 </r>
       <r>    -6.2755     0.0000    26.0000 </r>
       <r>    -6.1977     0.0000    26.0000 </r>
       <r>    -6.1199     0.0000    26.0000 </r>
       <r>    -6.0421     0.0000    26.0000 </r>
       <r>    -5.9643     0.0000    26.0000 </r>
       <r>    -5.8865     0.0000    26.0000 </r>
       <r>    -5.8086     0.0000    26.0000 </r>
       <r>    -5.7308     0.0000    26.0000 </r>
       <r>    -5.6530     0.0000    26.0000 </r>
       <r>    -5.5752     0.0000    26.0000 </r>
       <r>    -5.4974     0.0000    26.0000 </r>
       <r>    -5.4196     0.0000    26.0000 </r>
       <r>    -5.3418     0.0000    26.0000 </r>
       <r>    -5.2640     0.0000    26.0000 </r>
       <r>    -5.1861     0.0000    26.0000 </r>
       <r>    -5.1083     0.0000    26.0000 </r>
       <r>    -5.0305     0.0000    26.0000 </r>
       <r>    -4.9527     0.0000    26.0000 </r>
       <r>    -4.8749     0.0000    26.0000 </r>
       <r>    -4.7971     0.0000    26.0000 </r>
       <r>    -4.7193     0.0000    26.0000 </r>
       <r>    -4.6415     0.0000    26.0000 </r>
       <r>    -4.5636     0.0000    26.0000 </r>
       <r>    -4.4858     0.0000    26.0000 </r>
       <r>    -4.4080     0.0000    26.0000 </r>
       <r>    -4.3302     0.0000    26.0000 </r>
       <r>    -4.2524     0.0000    26.0000 </r>
       <r>    -4.1746     0.0000    26.0000 </r>
       <r>    -4.0968     0.0000    26.0000 </r>
       <r>    -4.0190     0.0000    26.0000 </r>
       <r>    -3.9412     0.0000    26.0000 </r>
       <r>    -3.8633     0.0000    26.0000 </r>
       <r>    -3.7855     0.0000    26.0000 </r>
       <r>    -3.7077     0.0000    26.0000 </r>
       <r>    -3.6299     0.0000    26.0000 </r>
       <r>    -3.5521     0.0000    26.0000 </r>
       <r>    -3.4743     0.0000    26.0000 </r>
       <r>    -3.3965     0.0000    26.0000 </r>
       <r>    -3.3187     0.0000    26.0000 </r>
       <r>    -3.2408     0.0000    26.0000 </r>
       <r>    -3.1630     0.0000    26.0000 </r>
       <r>    -3.0852     0.0000    26.0000 </r>
       <r>    -3.0074     0.0000    26.0000 </r>
       <r>    -2.9296     0.0000    26.0000 </r>
       <r>    -2.8518     0.0000    26.0000 </r>
       <r>    -2.7740     0.0000    26.0000 </r>
       <r>    -2.6962     0.0000    26.0000 </r>
       <r>    -2.6183     0.0000    26.0000 </r>
       <r>    -2.5405     0.0000    26.0000 </r>
       <r>    -2.4627     0.0000    26.0000 </r>
       <r>    -2.3849     0.0000    26.0000 </r>
       <r>    -2.3071     0.0000    26.0000 </r>
       <r>    -2.2293     0.0000    26.0000 </r>
       <r>    -2.1515     0.0000    26.0000 </r>
       <r>    -2.0737     0.0000    26.0000 </r>
       <r>    -1.9959     0.0000    26.0000 </r>
       <r>    -1.9180     0.0000    26.0000 </r>
       <r>    -1.8402     0.0000    26.0000 </r>
       <r>    -1.7624     0.0000    26.0000 </r>
       <r>    -1.6846     0.0000    26.0000 </r>
       <r>    -1.6068     0.0000    26.0000 </r>
       <r>    -1.5290     0.0000    26.0000 </r>
       <r>    -1.4512     0.0000    26.0000 </r>
       <r>    -1.3734     0.0000    26.0000 </r>
       <r>    -1.2955     0.0000    26.0000 </r>
       <r>    -1.2177     0.0000    26.0000 </r>
       <r>    -1.1399     0.0081    26.0006 </r>
       <r>    -1.0621     0.8882    26.0697 </r>
       <r>    -0.9843     3.3579    26.3310 </r>
       <r>    -0.9065     3.6069    26.6117 </r>
       <r>    -0.8287     2.1565    26.7795 </r>
       <r>    -0.7509     5.0636    27.1735 </r>
       <r>    -0.6730     3.9070    27.4775 </r>
       <r>    -0.5952     3.1925    27.7259 </r>
       <r>    -0.5174     6.0923    28.2000 </r>
       <r>    -0.4396     2.2557    28.3755 </r>
       <r>    -0.3618     4.1021    28.6947 </r>
       <r>    -0.2840     6.5020    29.2006 </r>
       <r>    -0.2062     8.7357    29.8804 </r>
       <r>    -0.1284    13.3320    30.9178 </r>
       <r>    -0.0506     7.6081    31.5098 </r>
       <r>     0.0273     9.6565    32.2612 </r>
       <r>     0.1051     6.9443    32.8015 </r>
       <r>     0.1829     5.8624    33.2577 </r>
       <r>     0.2607     5.5801    33.6919 </r>
       <r>     0.3385    13.9909    34.7805 </r>
       <r>     0.4163    19.7041    36.3137 </r>
       <r>     0.4941    18.0429    37.7177 </r>
       <r>     0.5719    14.2821    38.8290 </r>
       <r>     0.6498    12.7095    39.8180 </r>
       <r>     0.7276     7.8226    40.4267 </r>
       <r>     0.8054     9.1148    41.1359 </r>
       <r>     0.8832    19.7667    42.6740 </r>
       <r>     0.9610    19.4447    44.1870 </r>
       <r>     1.0388    15.0294    45.3565 </r>
       <r>     1.1166    13.5747    46.4128 </r>
       <r>     1.1944    12.5685    47.3907 </r>
       <r>     1.2723     7.3869    47.9655 </r>
       <r>     1.3501     0.4423    48.0000 </r>
       <r>     1.4279     0.0006    48.0000 </r>
       <r>     1.5057     0.0000    48.0000 </r>
       <r>     1.5835     0.0000    48.0000 </r>
       <r>     1.6613     0.0000    48.0000 </r>
       <r>     1.7391     0.0000    48.0000 </r>
       <r>     1.8169     0.0000    48.0000 </r>
       <r>     1.8947     0.0000    48.0000 </r>
       <r>     1.9726     0.0000    48.0000 </r>
       <r>     2.0504     0.0000    48.0000 </r>
       <r>     2.1282     0.0000    48.0000 </r>
       <r>     2.2060     0.0000    48.0000 </r>
       <r>     2.2838     0.0000    48.0000 </r>
      </set>
     </set>
    </array>
   </total>
  </dos>
 </calculation>
 <structure name="finalpos" >
  <crystal>
   <varray name="basis" >
    <v>       8.31557575       0.00000000       0.00000000 </v>
    <v>       5.54371716       9.60199979       0.00000000 </v>
    <v>       0.00000000       0.00000000      26.78963917 </v>
   </varray>
   <i name="volume">   2139.04972377 </i>
   <varray name="rec_basis" >
    <v>       0.12025626      -0.06942998       0.00000000 </v>
    <v>       0.00000000       0.10414497       0.00000000 </v>
    <v>       0.00000000       0.00000000       0.03732786 </v>
   </varray>
  </crystal>
  <varray name="positions" >
   <v>       0.46814395       0.38220267       0.34847688 </v>
   <v>       0.34539138       0.63607896       0.37020655 </v>
   <v>       0.39635916       0.49180276       0.39001272 </v>
   <v>       0.54742867       0.44642888       0.43074488 </v>
   <v>       0.35880912       0.40540409       0.32087778 </v>
   <v>       0.58437481       0.37977714       0.32833738 </v>
   <v>       0.50785740       0.27901375       0.36308776 </v>
   <v>       0.22480571       0.67772236       0.34527901 </v>
   <v>       0.27680019       0.49436993       0.40860199 </v>
   <v>       0.46115274       0.63071028       0.34911109 </v>
   <v>       0.58836234       0.34251719       0.44504519 </v>
   <v>       0.31218207       0.71097898       0.40078181 </v>
   <v>       0.67047957       0.44626850       0.41609370 </v>
   <v>       0.49531467       0.51905125       0.46228693 </v>
  </varray>
 </structure>
</modeling>
