  14  14   0   0
  0.1527893E+03  0.8315576E-09  0.1108743E-08  0.2678964E-08  0.5000000E-15
  1.000000000000000E-004
  CAR 
 unknown system                          
      2.22441479    -20.80779183  301     -5.83205915      1.00000000
    -20.808  0.0000E+00  0.0000E+00
    -20.731  0.0000E+00  0.0000E+00
    -20.654  0.0000E+00  0.0000E+00
    -20.577  0.0000E+00  0.0000E+00
    -20.501  0.0000E+00  0.0000E+00
    -20.424  0.0000E+00  0.0000E+00
    -20.347  0.0000E+00  0.0000E+00
    -20.270  0.0000E+00  0.0000E+00
    -20.194  0.0000E+00  0.0000E+00
    -20.117  0.0000E+00  0.0000E+00
    -20.040  0.3760E-13  0.2887E-14
    -19.963  0.1344E-06  0.1032E-07
    -19.887  0.4943E-02  0.3795E-03
    -19.810  0.2168E+01  0.1668E+00
    -19.733  0.1828E+02  0.1570E+01
    -19.656  0.5562E+01  0.1997E+01
    -19.579  0.4000E-01  0.2000E+01
    -19.503  0.3734E-05  0.2000E+01
    -19.426  0.3652E-11  0.2000E+01
    -19.349  0.0000E+00  0.2000E+01
    -19.272  0.0000E+00  0.2000E+01
    -19.196  0.0000E+00  0.2000E+01
    -19.119  0.0000E+00  0.2000E+01
    -19.042  0.0000E+00  0.2000E+01
    -18.965  0.0000E+00  0.2000E+01
    -18.888  0.0000E+00  0.2000E+01
    -18.812  0.0000E+00  0.2000E+01
    -18.735  0.0000E+00  0.2000E+01
    -18.658  0.0000E+00  0.2000E+01
    -18.581  0.0000E+00  0.2000E+01
    -18.505  0.0000E+00  0.2000E+01
    -18.428  0.0000E+00  0.2000E+01
    -18.351  0.0000E+00  0.2000E+01
    -18.274  0.0000E+00  0.2000E+01
    -18.197  0.0000E+00  0.2000E+01
    -18.121  0.0000E+00  0.2000E+01
    -18.044  0.0000E+00  0.2000E+01
    -17.967  0.0000E+00  0.2000E+01
    -17.890  0.2939E-10  0.2000E+01
    -17.814  0.1640E-04  0.2000E+01
    -17.737  0.9742E-01  0.2007E+01
    -17.660  0.7911E+01  0.2615E+01
    -17.583  0.1680E+02  0.3905E+01
    -17.507  0.1239E+01  0.4000E+01
    -17.430  0.1604E-02  0.4000E+01
    -17.353  0.2397E-07  0.4000E+01
    -17.276  0.4338E-14  0.4000E+01
    -17.199  0.0000E+00  0.4000E+01
    -17.123  0.0000E+00  0.4000E+01
    -17.046  0.0000E+00  0.4000E+01
    -16.969  0.0000E+00  0.4000E+01
    -16.892  0.0000E+00  0.4000E+01
    -16.816  0.0000E+00  0.4000E+01
    -16.739  0.0000E+00  0.4000E+01
    -16.662  0.0000E+00  0.4000E+01
    -16.585  0.0000E+00  0.4000E+01
    -16.508  0.0000E+00  0.4000E+01
    -16.432  0.0000E+00  0.4000E+01
    -16.355  0.0000E+00  0.4000E+01
    -16.278  0.1446E-14  0.4000E+01
    -16.201  0.1213E-07  0.4000E+01
    -16.125  0.1021E-02  0.4000E+01
    -16.048  0.9817E+00  0.4075E+01
    -15.971  0.1603E+02  0.5306E+01
    -15.894  0.8902E+01  0.5990E+01
    -15.817  0.1343E+00  0.6000E+01
    -15.741  0.2829E-04  0.6000E+01
    -15.664  0.6391E-10  0.6000E+01
    -15.587  0.0000E+00  0.6000E+01
    -15.510  0.0000E+00  0.6000E+01
    -15.434  0.0000E+00  0.6000E+01
    -15.357  0.0000E+00  0.6000E+01
    -15.280  0.0000E+00  0.6000E+01
    -15.203  0.0000E+00  0.6000E+01
    -15.127  0.0000E+00  0.6000E+01
    -15.050  0.0000E+00  0.6000E+01
    -14.973  0.0000E+00  0.6000E+01
    -14.896  0.0000E+00  0.6000E+01
    -14.819  0.0000E+00  0.6000E+01
    -14.743  0.0000E+00  0.6000E+01
    -14.666  0.0000E+00  0.6000E+01
    -14.589  0.0000E+00  0.6000E+01
    -14.512  0.0000E+00  0.6000E+01
    -14.436  0.0000E+00  0.6000E+01
    -14.359  0.2392E-08  0.6000E+01
    -14.282  0.3432E-03  0.6000E+01
    -14.205  0.5495E+00  0.6042E+01
    -14.128  0.1393E+02  0.7111E+01
    -14.052  0.1130E+02  0.7979E+01
    -13.975  0.2708E+00  0.8000E+01
    -13.898  0.9583E-04  0.8000E+01
    -13.821  0.3701E-09  0.8000E+01
    -13.745  0.0000E+00  0.8000E+01
    -13.668  0.0000E+00  0.8000E+01
    -13.591  0.0000E+00  0.8000E+01
    -13.514  0.0000E+00  0.8000E+01
    -13.437  0.0000E+00  0.8000E+01
    -13.361  0.0000E+00  0.8000E+01
    -13.284  0.0000E+00  0.8000E+01
    -13.207  0.0000E+00  0.8000E+01
    -13.130  0.0000E+00  0.8000E+01
    -13.054  0.0000E+00  0.8000E+01
    -12.977  0.0000E+00  0.8000E+01
    -12.900  0.0000E+00  0.8000E+01
    -12.823  0.0000E+00  0.8000E+01
    -12.747  0.0000E+00  0.8000E+01
    -12.670  0.0000E+00  0.8000E+01
    -12.593  0.0000E+00  0.8000E+01
    -12.516  0.0000E+00  0.8000E+01
    -12.439  0.0000E+00  0.8000E+01
    -12.363  0.0000E+00  0.8000E+01
    -12.286  0.0000E+00  0.8000E+01
    -12.209  0.0000E+00  0.8000E+01
    -12.132  0.0000E+00  0.8000E+01
    -12.056  0.0000E+00  0.8000E+01
    -11.979  0.0000E+00  0.8000E+01
    -11.902  0.0000E+00  0.8000E+01
    -11.825  0.0000E+00  0.8000E+01
    -11.748  0.1606E-10  0.8000E+01
    -11.672  0.1070E-04  0.8000E+01
    -11.595  0.7556E-01  0.8006E+01
    -11.518  0.7179E+01  0.8557E+01
    -11.441  0.1732E+02  0.9887E+01
    -11.365  0.1472E+01  0.1000E+02
    -11.288  0.2254E-02  0.1000E+02
    -11.211  0.4023E-07  0.1000E+02
    -11.134  0.3272E-12  0.1000E+02
    -11.057  0.6478E-06  0.1000E+02
    -10.981  0.1348E-01  0.1000E+02
    -10.904  0.3468E+01  0.1027E+02
    -10.827  0.1882E+02  0.1171E+02
    -10.750  0.3737E+01  0.1200E+02
    -10.674  0.1591E-01  0.1200E+02
    -10.597  0.8431E-06  0.1200E+02
    -10.520  0.4113E-06  0.1200E+02
    -10.443  0.1011E-01  0.1200E+02
    -10.367  0.3040E+01  0.1223E+02
    -10.290  0.1875E+02  0.1367E+02
    -10.213  0.4228E+01  0.1400E+02
    -10.136  0.2103E-01  0.1400E+02
    -10.059  0.1317E-05  0.1400E+02
     -9.983  0.8564E-12  0.1400E+02
     -9.906  0.0000E+00  0.1400E+02
     -9.829  0.1446E-14  0.1400E+02
     -9.752  0.1450E-07  0.1400E+02
     -9.676  0.1150E-02  0.1400E+02
     -9.599  0.1044E+01  0.1408E+02
     -9.522  0.1624E+02  0.1533E+02
     -9.445  0.8640E+01  0.1599E+02
     -9.368  0.1257E+00  0.1600E+02
     -9.292  0.1398E+01  0.1611E+02
     -9.215  0.1716E+02  0.1742E+02
     -9.138  0.7408E+01  0.1799E+02
     -9.061  0.8220E-01  0.1800E+02
     -8.985  0.1238E-04  0.1800E+02
     -8.908  0.1989E-10  0.1800E+02
     -8.831  0.1921E-07  0.1800E+02
     -8.754  0.1386E-02  0.1800E+02
     -8.677  0.1150E+01  0.1809E+02
     -8.601  0.1704E+02  0.1940E+02
     -8.524  0.2164E+02  0.2106E+02
     -8.447  0.1251E+02  0.2202E+02
     -8.370  0.1430E+02  0.2312E+02
     -8.294  0.1124E+02  0.2398E+02
     -8.217  0.2664E+00  0.2400E+02
     -8.140  0.9323E-04  0.2400E+02
     -8.063  0.3564E-09  0.2400E+02
     -7.987  0.0000E+00  0.2400E+02
     -7.910  0.0000E+00  0.2400E+02
     -7.833  0.0000E+00  0.2400E+02
     -7.756  0.0000E+00  0.2400E+02
     -7.679  0.0000E+00  0.2400E+02
     -7.603  0.0000E+00  0.2400E+02
     -7.526  0.0000E+00  0.2400E+02
     -7.449  0.0000E+00  0.2400E+02
     -7.372  0.0000E+00  0.2400E+02
     -7.296  0.0000E+00  0.2400E+02
     -7.219  0.0000E+00  0.2400E+02
     -7.142  0.0000E+00  0.2400E+02
     -7.065  0.0000E+00  0.2400E+02
     -6.988  0.0000E+00  0.2400E+02
     -6.912  0.0000E+00  0.2400E+02
     -6.835  0.0000E+00  0.2400E+02
     -6.758  0.0000E+00  0.2400E+02
     -6.681  0.0000E+00  0.2400E+02
     -6.605  0.0000E+00  0.2400E+02
     -6.528  0.0000E+00  0.2400E+02
     -6.451  0.0000E+00  0.2400E+02
     -6.374  0.5351E-11  0.2400E+02
     -6.298  0.4902E-05  0.2400E+02
     -6.221  0.4721E-01  0.2400E+02
     -6.144  0.5954E+01  0.2446E+02
     -6.067  0.1807E+02  0.2585E+02
     -5.990  0.1971E+01  0.2600E+02
     -5.914  0.4063E-02  0.2600E+02
     -5.837  0.9927E-07  0.2600E+02
     -5.760  0.2495E-13  0.2600E+02
     -5.683  0.0000E+00  0.2600E+02
     -5.607  0.0000E+00  0.2600E+02
     -5.530  0.0000E+00  0.2600E+02
     -5.453  0.0000E+00  0.2600E+02
     -5.376  0.0000E+00  0.2600E+02
     -5.299  0.0000E+00  0.2600E+02
     -5.223  0.0000E+00  0.2600E+02
     -5.146  0.0000E+00  0.2600E+02
     -5.069  0.0000E+00  0.2600E+02
     -4.992  0.0000E+00  0.2600E+02
     -4.916  0.0000E+00  0.2600E+02
     -4.839  0.0000E+00  0.2600E+02
     -4.762  0.0000E+00  0.2600E+02
     -4.685  0.0000E+00  0.2600E+02
     -4.608  0.0000E+00  0.2600E+02
     -4.532  0.0000E+00  0.2600E+02
     -4.455  0.0000E+00  0.2600E+02
     -4.378  0.0000E+00  0.2600E+02
     -4.301  0.0000E+00  0.2600E+02
     -4.225  0.0000E+00  0.2600E+02
     -4.148  0.0000E+00  0.2600E+02
     -4.071  0.0000E+00  0.2600E+02
     -3.994  0.0000E+00  0.2600E+02
     -3.918  0.0000E+00  0.2600E+02
     -3.841  0.0000E+00  0.2600E+02
     -3.764  0.0000E+00  0.2600E+02
     -3.687  0.0000E+00  0.2600E+02
     -3.610  0.0000E+00  0.2600E+02
     -3.534  0.0000E+00  0.2600E+02
     -3.457  0.0000E+00  0.2600E+02
     -3.380  0.0000E+00  0.2600E+02
     -3.303  0.0000E+00  0.2600E+02
     -3.227  0.0000E+00  0.2600E+02
     -3.150  0.0000E+00  0.2600E+02
     -3.073  0.0000E+00  0.2600E+02
     -2.996  0.0000E+00  0.2600E+02
     -2.919  0.0000E+00  0.2600E+02
     -2.843  0.0000E+00  0.2600E+02
     -2.766  0.0000E+00  0.2600E+02
     -2.689  0.0000E+00  0.2600E+02
     -2.612  0.0000E+00  0.2600E+02
     -2.536  0.0000E+00  0.2600E+02
     -2.459  0.0000E+00  0.2600E+02
     -2.382  0.0000E+00  0.2600E+02
     -2.305  0.0000E+00  0.2600E+02
     -2.228  0.0000E+00  0.2600E+02
     -2.152  0.0000E+00  0.2600E+02
     -2.075  0.0000E+00  0.2600E+02
     -1.998  0.0000E+00  0.2600E+02
     -1.921  0.0000E+00  0.2600E+02
     -1.845  0.0000E+00  0.2600E+02
     -1.768  0.0000E+00  0.2600E+02
     -1.691  0.0000E+00  0.2600E+02
     -1.614  0.0000E+00  0.2600E+02
     -1.538  0.0000E+00  0.2600E+02
     -1.461  0.0000E+00  0.2600E+02
     -1.384  0.1785E-10  0.2600E+02
     -1.307  0.6197E-05  0.2600E+02
     -1.230  0.2326E-01  0.2600E+02
     -1.154  0.1290E+01  0.2610E+02
     -1.077  0.3556E+01  0.2637E+02
     -1.000  0.3844E+01  0.2667E+02
     -0.923  0.2050E+01  0.2683E+02
     -0.847  0.5687E+01  0.2726E+02
     -0.770  0.3163E+01  0.2751E+02
     -0.693  0.4915E+01  0.2788E+02
     -0.616  0.4606E+01  0.2824E+02
     -0.539  0.9195E+00  0.2831E+02
     -0.463  0.4442E+01  0.2865E+02
     -0.386  0.9447E+01  0.2937E+02
     -0.309  0.1015E+02  0.3015E+02
     -0.232  0.1123E+02  0.3101E+02
     -0.156  0.8040E+01  0.3163E+02
     -0.079  0.3596E+01  0.3191E+02
     -0.002  0.7918E+01  0.3252E+02
      0.075  0.6075E+01  0.3298E+02
      0.152  0.7960E+01  0.3359E+02
      0.228  0.1179E+02  0.3450E+02
      0.305  0.1674E+02  0.3578E+02
      0.382  0.1817E+02  0.3718E+02
      0.459  0.1163E+02  0.3807E+02
      0.535  0.1534E+02  0.3925E+02
      0.612  0.1115E+02  0.4011E+02
      0.689  0.6527E+01  0.4061E+02
      0.766  0.1312E+02  0.4161E+02
      0.842  0.1871E+02  0.4305E+02
      0.919  0.2280E+02  0.4480E+02
      0.996  0.1887E+02  0.4625E+02
      1.073  0.1431E+02  0.4735E+02
      1.150  0.5793E+01  0.4779E+02
      1.226  0.2430E+01  0.4798E+02
      1.303  0.2714E+00  0.4800E+02
      1.380  0.6192E-03  0.4800E+02
      1.457  0.1685E-07  0.4800E+02
      1.533  0.4700E-14  0.4800E+02
      1.610  0.0000E+00  0.4800E+02
      1.687  0.0000E+00  0.4800E+02
      1.764  0.0000E+00  0.4800E+02
      1.841  0.0000E+00  0.4800E+02
      1.917  0.0000E+00  0.4800E+02
      1.994  0.0000E+00  0.4800E+02
      2.071  0.0000E+00  0.4800E+02
      2.148  0.0000E+00  0.4800E+02
      2.224  0.0000E+00  0.4800E+02
