       N       E                     dE             d eps       ncg     rms          rms(c)
DAV:   1    -0.850098653646E+02   -0.85010E+02   -0.35254E+01   640   0.234E+01    0.136E+01
DAV:   2    -0.785900650545E+02    0.64198E+01   -0.10428E+01   536   0.124E+01    0.692E+00
DAV:   3    -0.766446787261E+02    0.19454E+01   -0.54637E+00   560   0.915E+00    0.272E+00
DAV:   4    -0.763689243072E+02    0.27575E+00   -0.56321E-01   568   0.352E+00    0.643E-01
DAV:   5    -0.763251587756E+02    0.43766E-01   -0.16565E-01   504   0.163E+00    0.316E-01
DAV:   6    -0.763177839999E+02    0.73748E-02   -0.21058E-02   504   0.834E-01    0.203E-01
DAV:   7    -0.763028054563E+02    0.14979E-01   -0.68750E-03   424   0.455E-01    0.116E-01
DAV:   8    -0.762947215481E+02    0.80839E-02   -0.12544E-02   448   0.510E-01    0.834E-02
DAV:   9    -0.762940136439E+02    0.70790E-03   -0.72079E-04   456   0.163E-01
   1 F= -.76294014E+02 E0= -.76294014E+02  d E =-.182134E-15
