<?xml version="1.0" encoding="ISO-8859-1"?>
<modeling>
 <generator>
  <i name="program" type="string">vasp </i>
  <i name="version" type="string">5.4.4.18Apr17-6-g9f103f2a35  </i>
  <i name="subversion" type="string">(build Dec 31 2018 11:41:54) complex            parallel </i>
  <i name="platform" type="string">LinuxIFC </i>
  <i name="date" type="string">2022 10 14 </i>
  <i name="time" type="string">05:00:33 </i>
 </generator>
 <incar>
  <i type="int" name="ISTART">     1</i>
  <i type="string" name="PREC">acc</i>
  <i type="string" name="ALGO"> normal</i>
  <i type="logical" name="ADDGRID"> T  </i>
  <i type="int" name="ISPIN">     1</i>
  <i type="int" name="ICHARG">     2</i>
  <i type="int" name="NELM">   100</i>
  <i type="int" name="IBRION">    -1</i>
  <i name="EDIFF">      0.00100000</i>
  <i name="ENCUT">    400.00000000</i>
  <i type="string" name="LREAL"> Auto</i>
  <i type="int" name="ISMEAR">     0</i>
  <i name="SIGMA">      0.05000000</i>
  <i type="logical" name="LWAVE"> T  </i>
  <i type="logical" name="LCHARG"> F  </i>
  <v type="int" name="KPOINT_BSE">    -1     0     0     0</v>
  <i type="int" name="NELM">   100</i>
  <i type="string" name="GGA"> BF</i>
  <i type="logical" name="LUSE_VDW"> T  </i>
  <i name="Zab_VDW">     -1.88670000</i>
 </incar>
 <structure name="primitive_cell" >
  <crystal>
   <varray name="basis" >
    <v>       8.31557575       0.00000000       0.00000000 </v>
    <v>       5.54371716       9.60199979       0.00000000 </v>
    <v>       0.00000000       0.00000000      26.78963917 </v>
   </varray>
   <i name="volume">   2139.04972377 </i>
   <varray name="rec_basis" >
    <v>       0.12025626      -0.06942998       0.00000000 </v>
    <v>       0.00000000       0.10414497       0.00000000 </v>
    <v>       0.00000000       0.00000000       0.03732786 </v>
   </varray>
  </crystal>
  <varray name="positions" >
   <v>      -0.47584228       0.38027495       0.37474189 </v>
   <v>      -0.47683166       0.28425225       0.38097191 </v>
   <v>      -0.36298715       0.37859822       0.35352399 </v>
   <v>       0.33933354      -0.49205269       0.36991092 </v>
   <v>      -0.40820437       0.40078318       0.43427610 </v>
   <v>       0.30422928       0.48127787       0.33214221 </v>
   <v>       0.22411903      -0.49354717       0.38884436 </v>
   <v>      -0.36950367       0.30164237       0.45230919 </v>
   <v>      -0.28308277       0.40687149       0.42742644 </v>
   <v>       0.48827449       0.48888254       0.45562017 </v>
   <v>       0.31852239      -0.35071130       0.35523173 </v>
   <v>       0.45204418      -0.36330763       0.34354513 </v>
   <v>       0.26620764      -0.27571338       0.38597384 </v>
   <v>       0.22118382      -0.30492500       0.32442804 </v>
  </varray>
 </structure>
 <varray name="primitive_index" >
  <v type="int" >        1 </v>
  <v type="int" >        7 </v>
  <v type="int" >        6 </v>
  <v type="int" >        3 </v>
  <v type="int" >        4 </v>
  <v type="int" >        5 </v>
  <v type="int" >        9 </v>
  <v type="int" >       11 </v>
  <v type="int" >       13 </v>
  <v type="int" >       14 </v>
  <v type="int" >        2 </v>
  <v type="int" >       10 </v>
  <v type="int" >       12 </v>
  <v type="int" >        8 </v>
 </varray>
 <kpoints>
  <generation param="Monkhorst-Pack">
   <v type="int" name="divisions">       4        4        1 </v>
   <v name="usershift">      0.00000000       0.00000000       0.00000000 </v>
   <v name="genvec1">      0.25000000      -0.00000000       0.00000000 </v>
   <v name="genvec2">      0.00000000       0.25000000       0.00000000 </v>
   <v name="genvec3">      0.00000000       0.00000000       1.00000000 </v>
   <v name="shift">      0.50000000       0.50000000       0.00000000 </v>
  </generation>
  <varray name="kpointlist" >
   <v>       0.12500000       0.12500000       0.00000000 </v>
   <v>       0.37500000       0.12500000       0.00000000 </v>
   <v>      -0.37500000       0.12500000       0.00000000 </v>
   <v>      -0.12500000       0.12500000       0.00000000 </v>
   <v>       0.12500000       0.37500000       0.00000000 </v>
   <v>       0.37500000       0.37500000       0.00000000 </v>
   <v>      -0.37500000       0.37500000       0.00000000 </v>
   <v>      -0.12500000       0.37500000       0.00000000 </v>
  </varray>
  <varray name="weights" >
   <v>       0.12500000 </v>
   <v>       0.12500000 </v>
   <v>       0.12500000 </v>
   <v>       0.12500000 </v>
   <v>       0.12500000 </v>
   <v>       0.12500000 </v>
   <v>       0.12500000 </v>
   <v>       0.12500000 </v>
  </varray>
 </kpoints>
 <parameters>
  <separator name="general" >
   <i type="string" name="SYSTEM">unknown system</i>
   <i type="logical" name="LCOMPAT"> F  </i>
  </separator>
  <separator name="electronic" >
   <i type="string" name="PREC">acc</i>
   <i name="ENMAX">    400.00000000</i>
   <i name="ENAUG">    644.87300000</i>
   <i name="EDIFF">      0.00100000</i>
   <i type="int" name="IALGO">    38</i>
   <i type="int" name="IWAVPR">    10</i>
   <i type="int" name="NBANDS">    24</i>
   <i name="NELECT">     26.00000000</i>
   <i type="int" name="TURBO">     0</i>
   <i type="int" name="IRESTART">     0</i>
   <i type="int" name="NREBOOT">     0</i>
   <i type="int" name="NMIN">     0</i>
   <i name="EREF">      0.00000000</i>
   <separator name="electronic smearing" >
    <i type="int" name="ISMEAR">     0</i>
    <i name="SIGMA">      0.05000000</i>
    <i name="KSPACING">      0.50000000</i>
    <i type="logical" name="KGAMMA"> T  </i>
   </separator>
   <separator name="electronic projectors" >
    <i type="logical" name="LREAL"> T  </i>
    <v name="ROPT">     -0.00025000     -0.00025000</v>
    <i type="int" name="LMAXPAW">  -100</i>
    <i type="int" name="LMAXMIX">     2</i>
    <i type="logical" name="NLSPLINE"> F  </i>
   </separator>
   <separator name="electronic startup" >
    <i type="int" name="ISTART">     1</i>
    <i type="int" name="ICHARG">     2</i>
    <i type="int" name="INIWAV">     1</i>
   </separator>
   <separator name="electronic spin" >
    <i type="int" name="ISPIN">     1</i>
    <i type="logical" name="LNONCOLLINEAR"> F  </i>
    <v name="MAGMOM">      1.00000000      1.00000000      1.00000000      1.00000000      1.00000000      1.00000000      1.00000000      1.00000000      1.00000000      1.00000000      1.00000000      1.00000000      1.00000000      1.00000000</v>
    <i name="NUPDOWN">     -1.00000000</i>
    <i type="logical" name="LSORBIT"> F  </i>
    <v name="SAXIS">      0.00000000      0.00000000      1.00000000</v>
    <i type="logical" name="LSPIRAL"> F  </i>
    <v name="QSPIRAL">      0.00000000      0.00000000      0.00000000</v>
    <i type="logical" name="LZEROZ"> F  </i>
   </separator>
   <separator name="electronic exchange-correlation" >
    <i type="logical" name="LASPH"> F  </i>
    <i type="logical" name="LMETAGGA"> F  </i>
   </separator>
   <separator name="electronic convergence" >
    <i type="int" name="NELM">   100</i>
    <i type="int" name="NELMDL">     0</i>
    <i type="int" name="NELMIN">     2</i>
    <i name="ENINI">    400.00000000</i>
    <separator name="electronic convergence detail" >
     <i type="logical" name="LDIAG"> T  </i>
     <i type="logical" name="LSUBROT"> F  </i>
     <i name="WEIMIN">      0.00000000</i>
     <i name="EBREAK">      0.00001042</i>
     <i name="DEPER">      0.30000000</i>
     <i type="int" name="NRMM">     4</i>
     <i name="TIME">      0.40000000</i>
    </separator>
   </separator>
   <separator name="electronic mixer" >
    <i name="AMIX">      0.40000000</i>
    <i name="BMIX">      1.00000000</i>
    <i name="AMIN">      0.10000000</i>
    <i name="AMIX_MAG">      1.60000000</i>
    <i name="BMIX_MAG">      1.00000000</i>
    <separator name="electronic mixer details" >
     <i type="int" name="IMIX">     4</i>
     <i type="logical" name="MIXFIRST"> F  </i>
     <i type="int" name="MAXMIX">   -45</i>
     <i name="WC">    100.00000000</i>
     <i type="int" name="INIMIX">     1</i>
     <i type="int" name="MIXPRE">     1</i>
     <i type="int" name="MREMOVE">     5</i>
    </separator>
   </separator>
   <separator name="electronic dipolcorrection" >
    <i type="logical" name="LDIPOL"> F  </i>
    <i type="logical" name="LMONO"> F  </i>
    <i type="int" name="IDIPOL">     0</i>
    <i name="EPSILON">      1.00000000</i>
    <v name="DIPOL">   -100.00000000   -100.00000000   -100.00000000</v>
    <i name="EFIELD">      0.00000000</i>
   </separator>
  </separator>
  <separator name="grids" >
   <i type="int" name="NGX">    54</i>
   <i type="int" name="NGY">    72</i>
   <i type="int" name="NGZ">   180</i>
   <i type="int" name="NGXF">   108</i>
   <i type="int" name="NGYF">   144</i>
   <i type="int" name="NGZF">   360</i>
   <i type="logical" name="ADDGRID"> T  </i>
  </separator>
  <separator name="ionic" >
   <i type="int" name="NSW">     0</i>
   <i type="int" name="IBRION">    -1</i>
   <i type="int" name="MDALGO">     0</i>
   <i type="int" name="ISIF">     2</i>
   <i name="PSTRESS">      0.00000000</i>
   <i name="EDIFFG">      0.01000000</i>
   <i type="int" name="NFREE">     0</i>
   <i name="POTIM">      0.50000000</i>
   <i name="SMASS">     -3.00000000</i>
   <i name="SCALEE">      1.00000000</i>
  </separator>
  <separator name="ionic md" >
   <i name="TEBEG">      0.00010000</i>
   <i name="TEEND">      0.00010000</i>
   <i type="int" name="NBLOCK">     1</i>
   <i type="int" name="KBLOCK">     1</i>
   <i type="int" name="NPACO">   256</i>
   <i name="APACO">     16.00000000</i>
  </separator>
  <separator name="symmetry" >
   <i type="int" name="ISYM">     2</i>
   <i name="SYMPREC">      0.00001000</i>
  </separator>
  <separator name="dos" >
   <i type="int" name="LORBIT">     0</i>
   <v name="RWIGS">     -1.00000000     -1.00000000</v>
   <i type="int" name="NEDOS">   301</i>
   <i name="EMIN">     10.00000000</i>
   <i name="EMAX">    -10.00000000</i>
   <i name="EFERMI">      0.00000000</i>
  </separator>
  <separator name="writing" >
   <i type="int" name="NWRITE">     2</i>
   <i type="logical" name="LWAVE"> T  </i>
   <i type="logical" name="LDOWNSAMPLE"> F  </i>
   <i type="logical" name="LCHARG"> F  </i>
   <i type="logical" name="LPARD"> F  </i>
   <i type="logical" name="LVTOT"> F  </i>
   <i type="logical" name="LVHAR"> F  </i>
   <i type="logical" name="LELF"> F  </i>
   <i type="logical" name="LOPTICS"> F  </i>
   <v name="STM">      0.00000000      0.00000000      0.00000000      0.00000000      0.00000000      0.00000000      0.00000000</v>
  </separator>
  <separator name="performance" >
   <i type="int" name="NPAR">     8</i>
   <i type="int" name="NSIM">     4</i>
   <i type="int" name="NBLK">    -1</i>
   <i type="logical" name="LPLANE"> T  </i>
   <i type="logical" name="LSCALAPACK"> T  </i>
   <i type="logical" name="LSCAAWARE"> F  </i>
   <i type="logical" name="LSCALU"> F  </i>
   <i type="logical" name="LASYNC"> F  </i>
   <i type="logical" name="LORBITALREAL"> F  </i>
  </separator>
  <separator name="miscellaneous" >
   <i type="int" name="IDIOT">     3</i>
   <i type="int" name="ISPECIAL">     0</i>
   <i type="logical" name="LMUSIC"> F  </i>
   <v name="POMASS">     12.01100000      1.00000000</v>
   <v name="DARWINR">      0.00000000      0.00000000</v>
   <v name="DARWINV">      1.00000000      1.00000000</v>
   <i type="logical" name="LCORR"> T  </i>
  </separator>
  <i type="logical" name="GGA_COMPAT"> T  </i>
  <i type="logical" name="LBERRY"> F  </i>
  <i type="int" name="ICORELEVEL">     0</i>
  <i type="logical" name="LDAU"> F  </i>
  <i type="int" name="I_CONSTRAINED_M">     0</i>
  <separator name="electronic exchange-correlation" >
   <i type="string" name="GGA">BF</i>
   <i type="int" name="VOSKOWN">     0</i>
   <i type="logical" name="LHFCALC"> F  </i>
   <i type="string" name="PRECFOCK"></i>
   <i type="logical" name="LSYMGRAD"> F  </i>
   <i type="logical" name="LHFONE"> F  </i>
   <i type="logical" name="LRHFCALC"> F  </i>
   <i type="logical" name="LTHOMAS"> F  </i>
   <i type="logical" name="LMODELHF"> F  </i>
   <i name="ENCUT4O">     -1.00000000</i>
   <i type="int" name="EXXOEP">     0</i>
   <i type="int" name="FOURORBIT">     0</i>
   <i name="AEXX">      0.00000000</i>
   <i name="HFALPHA">      0.00000000</i>
   <i name="MCALPHA">      0.00000000</i>
   <i name="ALDAX">      1.00000000</i>
   <i name="AGGAX">      1.00000000</i>
   <i name="ALDAC">      1.00000000</i>
   <i name="AGGAC">      1.00000000</i>
   <i type="int" name="NKREDX">     1</i>
   <i type="int" name="NKREDY">     1</i>
   <i type="int" name="NKREDZ">     1</i>
   <i type="logical" name="SHIFTRED"> F  </i>
   <i type="logical" name="ODDONLY"> F  </i>
   <i type="logical" name="EVENONLY"> F  </i>
   <i type="int" name="LMAXFOCK">     0</i>
   <i type="int" name="NMAXFOCKAE">     0</i>
   <i type="logical" name="LFOCKAEDFT"> F  </i>
   <i name="HFSCREEN">      0.00000000</i>
   <i name="HFSCREENC">      0.00000000</i>
   <i type="int" name="NBANDSGWLOW">     0</i>
  </separator>
  <separator name="vdW DFT" >
   <i type="logical" name="LUSE_VDW"> T  </i>
   <i name="Zab_VDW">     -1.88670000</i>
   <i name="PARAM1">      0.12340000</i>
   <i name="PARAM2">      1.00000000</i>
   <i name="PARAM3">      0.00000000</i>
  </separator>
  <separator name="model GW" >
   <i type="int" name="MODEL_GW">     0</i>
   <i name="MODEL_EPS0">     91.67355959</i>
   <i name="MODEL_ALPHA">      1.00000000</i>
  </separator>
  <separator name="linear response parameters" >
   <i type="logical" name="LEPSILON"> F  </i>
   <i type="logical" name="LRPA"> F  </i>
   <i type="logical" name="LNABLA"> F  </i>
   <i type="logical" name="LVEL"> F  </i>
   <i type="int" name="KINTER">     0</i>
   <i name="CSHIFT">      0.10000000</i>
   <i name="OMEGAMAX">     -1.00000000</i>
   <i name="DEG_THRESHOLD">      0.00200000</i>
   <i name="RTIME">     -0.10000000</i>
   <i name="WPLASMAI">      0.00000000</i>
   <v name="DFIELD">      0.00000000      0.00000000      0.00000000</v>
   <v name="WPLASMA">      0.00000000      0.00000000      0.00000000      0.00000000      0.00000000      0.00000000      0.00000000      0.00000000      0.00000000</v>
  </separator>
  <separator name="orbital magnetization" >
   <i type="logical" name="NUCIND"> F  </i>
   <v name="MAGPOS">      0.00000000      0.00000000      0.00000000</v>
   <i type="logical" name="LNICSALL"> T  </i>
   <i type="logical" name="ORBITALMAG"> F  </i>
   <i type="logical" name="LMAGBLOCH"> F  </i>
   <i type="logical" name="LCHIMAG"> F  </i>
   <i type="logical" name="LGAUGE"> T  </i>
   <i type="int" name="MAGATOM">     0</i>
   <v name="MAGDIPOL">      0.00000000      0.00000000      0.00000000</v>
   <v name="AVECCONST">      0.00000000      0.00000000      0.00000000</v>
  </separator>
  <separator name="response functions" >
   <i type="logical" name="LADDER"> F  </i>
   <i type="logical" name="LRPAFORCE"> F  </i>
   <i type="logical" name="LFXC"> F  </i>
   <i type="logical" name="LHARTREE"> T  </i>
   <i type="int" name="IBSE">     0</i>
   <v type="int" name="KPOINT">    -1     0     0     0</v>
   <i type="logical" name="LTCTE"> F  </i>
   <i type="logical" name="LTETE"> F  </i>
   <i type="logical" name="LTRIPLET"> F  </i>
   <i type="logical" name="LFXCEPS"> F  </i>
   <i type="logical" name="LFXHEG"> F  </i>
   <i type="int" name="NATURALO">     2</i>
   <i type="logical" name="L2ORDER"> F  </i>
   <i type="logical" name="LMP2LT"> F  </i>
   <i type="logical" name="LUSEW"> F  </i>
   <i name="ENCUTGW">     -2.00000000</i>
   <i name="ENCUTGWSOFT">     -2.00000000</i>
   <i name="ENCUTLF">     -1.00000000</i>
   <i type="int" name="LMAXMP2">    -1</i>
   <i name="SCISSOR">      0.00000000</i>
   <i type="int" name="NOMEGA">     0</i>
   <i type="int" name="NOMEGAR">     0</i>
   <i type="int" name="NBANDSGW">    -1</i>
   <i type="int" name="NBANDSO">    -1</i>
   <i type="int" name="NBANDSV">    -1</i>
   <i type="int" name="NELM">   100</i>
   <i type="int" name="NELMHF">     1</i>
   <i type="int" name="DIM">     3</i>
   <i type="int" name="ANTIRES">     0</i>
   <i name="OMEGAMAX">    -30.00000000</i>
   <i name="OMEGAMIN">    -30.00000000</i>
   <i name="OMEGATL">   -200.00000000</i>
   <i type="int" name="OMEGAGRID">   140</i>
   <i name="CSHIFT">     -0.10000000</i>
   <i type="logical" name="SELFENERGY"> F  </i>
   <i type="logical" name="LSPECTRAL"> F  </i>
   <i type="logical" name="LSPECTRALGW"> F  </i>
   <i type="logical" name="LSINGLES"> F  </i>
   <i type="logical" name="LFERMIGW"> F  </i>
   <i type="logical" name="ODDONLYGW"> F  </i>
   <i type="logical" name="EVENONLYGW"> F  </i>
   <i type="int" name="NKREDLFX">     1</i>
   <i type="int" name="NKREDLFY">     1</i>
   <i type="int" name="NKREDLFZ">     1</i>
   <i type="int" name="MAXMEM">  2800</i>
   <i type="int" name="TELESCOPE">     0</i>
   <i type="int" name="TAUPAR">     1</i>
   <i type="int" name="OMEGAPAR">    -1</i>
   <i name="LAMBDA">      1.00000000</i>
  </separator>
  <separator name="External order field" >
   <i name="OFIELD_KAPPA">      0.00000000</i>
   <v name="OFIELD_K">      0.00000000      0.00000000      0.00000000</v>
   <i name="OFIELD_Q6_NEAR">      0.00000000</i>
   <i name="OFIELD_Q6_FAR">      0.00000000</i>
   <i name="OFIELD_A">      0.00000000</i>
  </separator>
 </parameters>
 <atominfo>
  <atoms>      14 </atoms>
  <types>       2 </types>
  <array name="atoms" >
   <dimension dim="1">ion</dimension>
   <field type="string">element</field>
   <field type="int">atomtype</field>
   <set>
    <rc><c>C </c><c>   1</c></rc>
    <rc><c>C </c><c>   1</c></rc>
    <rc><c>C </c><c>   1</c></rc>
    <rc><c>C </c><c>   1</c></rc>
    <rc><c>H </c><c>   2</c></rc>
    <rc><c>H </c><c>   2</c></rc>
    <rc><c>H </c><c>   2</c></rc>
    <rc><c>H </c><c>   2</c></rc>
    <rc><c>H </c><c>   2</c></rc>
    <rc><c>H </c><c>   2</c></rc>
    <rc><c>H </c><c>   2</c></rc>
    <rc><c>H </c><c>   2</c></rc>
    <rc><c>H </c><c>   2</c></rc>
    <rc><c>H </c><c>   2</c></rc>
   </set>
  </array>
  <array name="atomtypes" >
   <dimension dim="1">type</dimension>
   <field type="int">atomspertype</field>
   <field type="string">element</field>
   <field>mass</field>
   <field>valence</field>
   <field type="string">pseudopotential</field>
   <set>
    <rc><c>   4</c><c>C </c><c>     12.01100000</c><c>      4.00000000</c><c> PAW_PBE C 08Apr2002                    </c></rc>
    <rc><c>  10</c><c>H </c><c>      1.00000000</c><c>      1.00000000</c><c> PAW_PBE H 15Jun2001                    </c></rc>
   </set>
  </array>
 </atominfo>
 <structure name="initialpos" >
  <crystal>
   <varray name="basis" >
    <v>       8.31557575       0.00000000       0.00000000 </v>
    <v>       5.54371716       9.60199979       0.00000000 </v>
    <v>       0.00000000       0.00000000      26.78963917 </v>
   </varray>
   <i name="volume">   2139.04972377 </i>
   <varray name="rec_basis" >
    <v>       0.12025626      -0.06942998       0.00000000 </v>
    <v>       0.00000000       0.10414497       0.00000000 </v>
    <v>       0.00000000       0.00000000       0.03732786 </v>
   </varray>
  </crystal>
  <varray name="positions" >
   <v>       0.52415772       0.38027495       0.37474189 </v>
   <v>       0.31852239       0.64928870       0.35523173 </v>
   <v>       0.33933354       0.50794731       0.36991092 </v>
   <v>       0.59179563       0.40078318       0.43427610 </v>
   <v>       0.30422928       0.48127787       0.33214221 </v>
   <v>       0.63701285       0.37859822       0.35352399 </v>
   <v>       0.52316834       0.28425225       0.38097191 </v>
   <v>       0.22118382       0.69507500       0.32442804 </v>
   <v>       0.22411903       0.50645283       0.38884436 </v>
   <v>       0.45204418       0.63669237       0.34354513 </v>
   <v>       0.63049633       0.30164237       0.45230919 </v>
   <v>       0.26620764       0.72428662       0.38597384 </v>
   <v>       0.71691723       0.40687149       0.42742644 </v>
   <v>       0.48827449       0.48888254       0.45562017 </v>
  </varray>
 </structure>
 <calculation>
  <scstep>
   <time name="dav">    2.96    2.96</time>
   <time name="total">   14.67   14.74</time>
   <energy>
    <i name="alphaZ">      1.28650428 </i>
    <i name="ewald">   1708.93050673 </i>
    <i name="hartreedc">  -2148.60861093 </i>
    <i name="XCdc">     78.69188341 </i>
    <i name="pawpsdc">    152.91373464 </i>
    <i name="pawaedc">   -159.42092291 </i>
    <i name="eentropy">     -0.00000000 </i>
    <i name="bandstr">   -438.97878950 </i>
    <i name="atom">    720.17582891 </i>
    <i name="e_fr_energy">    -85.00986536 </i>
    <i name="e_wo_entrp">    -85.00986536 </i>
    <i name="e_0_energy">    -85.00986536 </i>
   </energy>
  </scstep>
  <scstep>
   <time name="dav">    2.56    2.57</time>
   <time name="total">   13.84   13.87</time>
   <energy>
    <i name="e_fr_energy">    -78.59006505 </i>
    <i name="e_wo_entrp">    -78.59006505 </i>
    <i name="e_0_energy">    -78.59006505 </i>
   </energy>
  </scstep>
  <scstep>
   <time name="dav">    2.63    2.64</time>
   <time name="total">   13.92   13.96</time>
   <energy>
    <i name="e_fr_energy">    -76.64467873 </i>
    <i name="e_wo_entrp">    -76.64467873 </i>
    <i name="e_0_energy">    -76.64467873 </i>
   </energy>
  </scstep>
  <scstep>
   <time name="dav">    2.71    2.71</time>
   <time name="total">   13.99   14.02</time>
   <energy>
    <i name="e_fr_energy">    -76.36892431 </i>
    <i name="e_wo_entrp">    -76.36892431 </i>
    <i name="e_0_energy">    -76.36892431 </i>
   </energy>
  </scstep>
  <scstep>
   <time name="dav">    2.42    2.43</time>
   <time name="total">   13.68   13.72</time>
   <energy>
    <i name="e_fr_energy">    -76.32515878 </i>
    <i name="e_wo_entrp">    -76.32515878 </i>
    <i name="e_0_energy">    -76.32515878 </i>
   </energy>
  </scstep>
  <scstep>
   <time name="dav">    2.42    2.43</time>
   <time name="total">   13.70   13.74</time>
   <energy>
    <i name="e_fr_energy">    -76.31778400 </i>
    <i name="e_wo_entrp">    -76.31778400 </i>
    <i name="e_0_energy">    -76.31778400 </i>
   </energy>
  </scstep>
  <scstep>
   <time name="dav">    2.11    2.12</time>
   <time name="total">   13.36   13.44</time>
   <energy>
    <i name="e_fr_energy">    -76.30280546 </i>
    <i name="e_wo_entrp">    -76.30280546 </i>
    <i name="e_0_energy">    -76.30280546 </i>
   </energy>
  </scstep>
  <scstep>
   <time name="dav">    2.24    2.24</time>
   <time name="total">   13.50   13.54</time>
   <energy>
    <i name="e_fr_energy">    -76.29472155 </i>
    <i name="e_wo_entrp">    -76.29472155 </i>
    <i name="e_0_energy">    -76.29472155 </i>
   </energy>
  </scstep>
  <scstep>
   <time name="dav">    2.24    2.24</time>
   <time name="total">   13.24   13.28</time>
   <energy>
    <i name="alphaZ">      1.28650428 </i>
    <i name="ewald">   1708.93050673 </i>
    <i name="hartreedc">  -2285.05758966 </i>
    <i name="XCdc">     86.26361504 </i>
    <i name="pawpsdc">    316.72233294 </i>
    <i name="pawaedc">   -323.38058530 </i>
    <i name="eentropy">     -0.00000000 </i>
    <i name="bandstr">   -301.23462659 </i>
    <i name="atom">    720.17582891 </i>
    <i name="e_fr_energy">    -76.29401364 </i>
    <i name="e_wo_entrp">    -76.29401364 </i>
    <i name="e_0_energy">    -76.29401364 </i>
   </energy>
  </scstep>
  <structure>
   <crystal>
    <varray name="basis" >
     <v>       8.31557575       0.00000000       0.00000000 </v>
     <v>       5.54371716       9.60199979       0.00000000 </v>
     <v>       0.00000000       0.00000000      26.78963917 </v>
    </varray>
    <i name="volume">   2139.04972377 </i>
    <varray name="rec_basis" >
     <v>       0.12025626      -0.06942998       0.00000000 </v>
     <v>       0.00000000       0.10414497       0.00000000 </v>
     <v>       0.00000000       0.00000000       0.03732786 </v>
    </varray>
   </crystal>
   <varray name="positions" >
    <v>       0.52415772       0.38027495       0.37474189 </v>
    <v>       0.31852239       0.64928870       0.35523173 </v>
    <v>       0.33933354       0.50794731       0.36991092 </v>
    <v>       0.59179563       0.40078318       0.43427610 </v>
    <v>       0.30422928       0.48127787       0.33214221 </v>
    <v>       0.63701285       0.37859822       0.35352399 </v>
    <v>       0.52316834       0.28425225       0.38097191 </v>
    <v>       0.22118382       0.69507500       0.32442804 </v>
    <v>       0.22411903       0.50645283       0.38884436 </v>
    <v>       0.45204418       0.63669237       0.34354513 </v>
    <v>       0.63049633       0.30164237       0.45230919 </v>
    <v>       0.26620764       0.72428662       0.38597384 </v>
    <v>       0.71691723       0.40687149       0.42742644 </v>
    <v>       0.48827449       0.48888254       0.45562017 </v>
   </varray>
  </structure>
  <varray name="forces" >
   <v>       2.06264992       1.40766292       5.38095329 </v>
   <v>       0.22003927       0.08607390       1.13130184 </v>
   <v>      -2.02737017      -0.67102274      -4.86360642 </v>
   <v>      -0.00806678      -1.46279210      -2.08454169 </v>
   <v>      -0.24932740       0.22816137       0.19265373 </v>
   <v>      -0.57930848      -0.31189111      -0.68855271 </v>
   <v>      -0.17345786      -0.16918448      -0.91251196 </v>
   <v>      -0.03287238       0.08305358      -0.03745309 </v>
   <v>       0.47777108       0.32395808       1.03852738 </v>
   <v>       0.00977414      -0.00235775      -0.02070038 </v>
   <v>       0.18304216       0.20016743       0.46751687 </v>
   <v>       0.16558091       0.05018935       0.04331342 </v>
   <v>       0.07190658       0.17522976       0.52884505 </v>
   <v>      -0.12036097       0.06275179      -0.17574533 </v>
  </varray>
  <varray name="stress" >
   <v>      -0.35551357      -0.89524629       0.89762827 </v>
   <v>      -0.89524629      -0.72594850      -1.17881716 </v>
   <v>       0.89762827      -1.17881716      -2.03686889 </v>
  </varray>
  <energy>
   <i name="e_fr_energy">    -76.29401364 </i>
   <i name="e_wo_entrp">    -76.29401364 </i>
   <i name="e_0_energy">     -0.00000000 </i>
  </energy>
  <time name="totalsc">  141.20  142.07</time>
  <eigenvalues>
   <array>
    <dimension dim="1">band</dimension>
    <dimension dim="2">kpoint</dimension>
    <dimension dim="3">spin</dimension>
    <field>eigene</field>
    <field>occ</field>
    <set>
     <set comment="spin 1">
      <set comment="kpoint 1">
       <r>  -19.7609    1.0000 </r>
       <r>  -17.6422    1.0000 </r>
       <r>  -15.9849    1.0000 </r>
       <r>  -14.1334    1.0000 </r>
       <r>  -11.4972    1.0000 </r>
       <r>  -10.8647    1.0000 </r>
       <r>  -10.3248    1.0000 </r>
       <r>   -9.5367    1.0000 </r>
       <r>   -9.2358    1.0000 </r>
       <r>   -8.6172    1.0000 </r>
       <r>   -8.5267    1.0000 </r>
       <r>   -8.3749    1.0000 </r>
       <r>   -6.1179    1.0000 </r>
       <r>   -1.1438    0.0000 </r>
       <r>   -0.5123    0.0000 </r>
       <r>    0.0234    0.0000 </r>
       <r>    0.1484    0.0000 </r>
       <r>    0.2825    0.0000 </r>
       <r>    0.4306    0.0000 </r>
       <r>    0.4958    0.0000 </r>
       <r>    0.7601    0.0000 </r>
       <r>    0.8495    0.0000 </r>
       <r>    0.9458    0.0000 </r>
       <r>    1.0807    0.0000 </r>
      </set>
      <set comment="kpoint 2">
       <r>  -19.7608    1.0000 </r>
       <r>  -17.6423    1.0000 </r>
       <r>  -15.9850    1.0000 </r>
       <r>  -14.1334    1.0000 </r>
       <r>  -11.4977    1.0000 </r>
       <r>  -10.8647    1.0000 </r>
       <r>  -10.3241    1.0000 </r>
       <r>   -9.5369    1.0000 </r>
       <r>   -9.2336    1.0000 </r>
       <r>   -8.6172    1.0000 </r>
       <r>   -8.5270    1.0000 </r>
       <r>   -8.3761    1.0000 </r>
       <r>   -6.1176    1.0000 </r>
       <r>   -0.8812    0.0000 </r>
       <r>   -0.2715    0.0000 </r>
       <r>   -0.1702    0.0000 </r>
       <r>    0.0446    0.0000 </r>
       <r>    0.2494    0.0000 </r>
       <r>    0.3325    0.0000 </r>
       <r>    0.5131    0.0000 </r>
       <r>    0.6656    0.0000 </r>
       <r>    0.7417    0.0000 </r>
       <r>    0.9034    0.0000 </r>
       <r>    1.0744    0.0000 </r>
      </set>
      <set comment="kpoint 3">
       <r>  -19.7608    1.0000 </r>
       <r>  -17.6422    1.0000 </r>
       <r>  -15.9850    1.0000 </r>
       <r>  -14.1333    1.0000 </r>
       <r>  -11.4975    1.0000 </r>
       <r>  -10.8647    1.0000 </r>
       <r>  -10.3241    1.0000 </r>
       <r>   -9.5371    1.0000 </r>
       <r>   -9.2336    1.0000 </r>
       <r>   -8.6172    1.0000 </r>
       <r>   -8.5270    1.0000 </r>
       <r>   -8.3762    1.0000 </r>
       <r>   -6.1177    1.0000 </r>
       <r>   -0.6845    0.0000 </r>
       <r>   -0.3322    0.0000 </r>
       <r>   -0.3058    0.0000 </r>
       <r>   -0.0575    0.0000 </r>
       <r>    0.2567    0.0000 </r>
       <r>    0.3321    0.0000 </r>
       <r>    0.4422    0.0000 </r>
       <r>    0.5266    0.0000 </r>
       <r>    0.8883    0.0000 </r>
       <r>    0.9241    0.0000 </r>
       <r>    0.9683    0.0000 </r>
      </set>
      <set comment="kpoint 4">
       <r>  -19.7609    1.0000 </r>
       <r>  -17.6423    1.0000 </r>
       <r>  -15.9849    1.0000 </r>
       <r>  -14.1334    1.0000 </r>
       <r>  -11.4971    1.0000 </r>
       <r>  -10.8647    1.0000 </r>
       <r>  -10.3248    1.0000 </r>
       <r>   -9.5369    1.0000 </r>
       <r>   -9.2359    1.0000 </r>
       <r>   -8.6174    1.0000 </r>
       <r>   -8.5268    1.0000 </r>
       <r>   -8.3750    1.0000 </r>
       <r>   -6.1181    1.0000 </r>
       <r>   -1.0748    0.0000 </r>
       <r>   -0.4501    0.0000 </r>
       <r>   -0.2314    0.0000 </r>
       <r>    0.1088    0.0000 </r>
       <r>    0.3983    0.0000 </r>
       <r>    0.4596    0.0000 </r>
       <r>    0.5701    0.0000 </r>
       <r>    0.7050    0.0000 </r>
       <r>    0.8249    0.0000 </r>
       <r>    0.8976    0.0000 </r>
       <r>    1.0365    0.0000 </r>
      </set>
      <set comment="kpoint 5">
       <r>  -19.7609    1.0000 </r>
       <r>  -17.6423    1.0000 </r>
       <r>  -15.9849    1.0000 </r>
       <r>  -14.1334    1.0000 </r>
       <r>  -11.4970    1.0000 </r>
       <r>  -10.8647    1.0000 </r>
       <r>  -10.3247    1.0000 </r>
       <r>   -9.5369    1.0000 </r>
       <r>   -9.2358    1.0000 </r>
       <r>   -8.6173    1.0000 </r>
       <r>   -8.5268    1.0000 </r>
       <r>   -8.3749    1.0000 </r>
       <r>   -6.1181    1.0000 </r>
       <r>   -1.0178    0.0000 </r>
       <r>   -0.4015    0.0000 </r>
       <r>   -0.3617    0.0000 </r>
       <r>    0.1620    0.0000 </r>
       <r>    0.1850    0.0000 </r>
       <r>    0.3066    0.0000 </r>
       <r>    0.5870    0.0000 </r>
       <r>    0.7593    0.0000 </r>
       <r>    0.8578    0.0000 </r>
       <r>    0.9714    0.0000 </r>
       <r>    1.1775    0.0000 </r>
      </set>
      <set comment="kpoint 6">
       <r>  -19.7608    1.0000 </r>
       <r>  -17.6423    1.0000 </r>
       <r>  -15.9850    1.0000 </r>
       <r>  -14.1335    1.0000 </r>
       <r>  -11.4979    1.0000 </r>
       <r>  -10.8647    1.0000 </r>
       <r>  -10.3243    1.0000 </r>
       <r>   -9.5368    1.0000 </r>
       <r>   -9.2337    1.0000 </r>
       <r>   -8.6172    1.0000 </r>
       <r>   -8.5270    1.0000 </r>
       <r>   -8.3763    1.0000 </r>
       <r>   -6.1175    1.0000 </r>
       <r>   -0.8920    0.0000 </r>
       <r>   -0.3952    0.0000 </r>
       <r>   -0.2379    0.0000 </r>
       <r>    0.1629    0.0000 </r>
       <r>    0.2869    0.0000 </r>
       <r>    0.3506    0.0000 </r>
       <r>    0.5915    0.0000 </r>
       <r>    0.7136    0.0000 </r>
       <r>    0.8303    0.0000 </r>
       <r>    0.8912    0.0000 </r>
       <r>    1.0292    0.0000 </r>
      </set>
      <set comment="kpoint 7">
       <r>  -19.7608    1.0000 </r>
       <r>  -17.6423    1.0000 </r>
       <r>  -15.9850    1.0000 </r>
       <r>  -14.1334    1.0000 </r>
       <r>  -11.4977    1.0000 </r>
       <r>  -10.8647    1.0000 </r>
       <r>  -10.3242    1.0000 </r>
       <r>   -9.5370    1.0000 </r>
       <r>   -9.2336    1.0000 </r>
       <r>   -8.6171    1.0000 </r>
       <r>   -8.5269    1.0000 </r>
       <r>   -8.3762    1.0000 </r>
       <r>   -6.1177    1.0000 </r>
       <r>   -0.7128    0.0000 </r>
       <r>   -0.4378    0.0000 </r>
       <r>   -0.2912    0.0000 </r>
       <r>   -0.0477    0.0000 </r>
       <r>    0.2242    0.0000 </r>
       <r>    0.3303    0.0000 </r>
       <r>    0.5133    0.0000 </r>
       <r>    0.7983    0.0000 </r>
       <r>    0.8703    0.0000 </r>
       <r>    0.9298    0.0000 </r>
       <r>    1.0142    0.0000 </r>
      </set>
      <set comment="kpoint 8">
       <r>  -19.7609    1.0000 </r>
       <r>  -17.6423    1.0000 </r>
       <r>  -15.9849    1.0000 </r>
       <r>  -14.1334    1.0000 </r>
       <r>  -11.4969    1.0000 </r>
       <r>  -10.8648    1.0000 </r>
       <r>  -10.3247    1.0000 </r>
       <r>   -9.5372    1.0000 </r>
       <r>   -9.2359    1.0000 </r>
       <r>   -8.6174    1.0000 </r>
       <r>   -8.5270    1.0000 </r>
       <r>   -8.3751    1.0000 </r>
       <r>   -6.1184    1.0000 </r>
       <r>   -0.8294    0.0000 </r>
       <r>   -0.6854    0.0000 </r>
       <r>   -0.1987    0.0000 </r>
       <r>   -0.0453    0.0000 </r>
       <r>    0.3017    0.0000 </r>
       <r>    0.3622    0.0000 </r>
       <r>    0.5067    0.0000 </r>
       <r>    0.7810    0.0000 </r>
       <r>    0.8162    0.0000 </r>
       <r>    0.9558    0.0000 </r>
       <r>    1.0417    0.0000 </r>
      </set>
     </set>
    </set>
   </array>
  </eigenvalues>
  <separator name="orbital magnetization" >
   <v name="MAGDIPOLOUT">      0.00000000      0.00000000      0.00000000</v>
  </separator>
  <dos>
   <i name="efermi">     -5.83205915 </i>
   <total>
    <array>
     <dimension dim="1">gridpoints</dimension>
     <dimension dim="2">spin</dimension>
     <field>energy</field>
     <field>total</field>
     <field>integrated</field>
     <set>
      <set comment="spin 1">
       <r>   -20.8078     0.0000     0.0000 </r>
       <r>   -20.7310     0.0000     0.0000 </r>
       <r>   -20.6542     0.0000     0.0000 </r>
       <r>   -20.5775     0.0000     0.0000 </r>
       <r>   -20.5007     0.0000     0.0000 </r>
       <r>   -20.4239     0.0000     0.0000 </r>
       <r>   -20.3471     0.0000     0.0000 </r>
       <r>   -20.2704     0.0000     0.0000 </r>
       <r>   -20.1936     0.0000     0.0000 </r>
       <r>   -20.1168     0.0000     0.0000 </r>
       <r>   -20.0401     0.0000     0.0000 </r>
       <r>   -19.9633     0.0000     0.0000 </r>
       <r>   -19.8865     0.0049     0.0004 </r>
       <r>   -19.8097     2.1680     0.1668 </r>
       <r>   -19.7330    18.2754     1.5699 </r>
       <r>   -19.6562     5.5621     1.9969 </r>
       <r>   -19.5794     0.0400     2.0000 </r>
       <r>   -19.5026     0.0000     2.0000 </r>
       <r>   -19.4259     0.0000     2.0000 </r>
       <r>   -19.3491     0.0000     2.0000 </r>
       <r>   -19.2723     0.0000     2.0000 </r>
       <r>   -19.1955     0.0000     2.0000 </r>
       <r>   -19.1188     0.0000     2.0000 </r>
       <r>   -19.0420     0.0000     2.0000 </r>
       <r>   -18.9652     0.0000     2.0000 </r>
       <r>   -18.8884     0.0000     2.0000 </r>
       <r>   -18.8117     0.0000     2.0000 </r>
       <r>   -18.7349     0.0000     2.0000 </r>
       <r>   -18.6581     0.0000     2.0000 </r>
       <r>   -18.5813     0.0000     2.0000 </r>
       <r>   -18.5046     0.0000     2.0000 </r>
       <r>   -18.4278     0.0000     2.0000 </r>
       <r>   -18.3510     0.0000     2.0000 </r>
       <r>   -18.2742     0.0000     2.0000 </r>
       <r>   -18.1975     0.0000     2.0000 </r>
       <r>   -18.1207     0.0000     2.0000 </r>
       <r>   -18.0439     0.0000     2.0000 </r>
       <r>   -17.9672     0.0000     2.0000 </r>
       <r>   -17.8904     0.0000     2.0000 </r>
       <r>   -17.8136     0.0000     2.0000 </r>
       <r>   -17.7368     0.0974     2.0075 </r>
       <r>   -17.6601     7.9111     2.6148 </r>
       <r>   -17.5833    16.8013     3.9047 </r>
       <r>   -17.5065     1.2391     3.9999 </r>
       <r>   -17.4297     0.0016     4.0000 </r>
       <r>   -17.3530     0.0000     4.0000 </r>
       <r>   -17.2762     0.0000     4.0000 </r>
       <r>   -17.1994     0.0000     4.0000 </r>
       <r>   -17.1226     0.0000     4.0000 </r>
       <r>   -17.0459     0.0000     4.0000 </r>
       <r>   -16.9691     0.0000     4.0000 </r>
       <r>   -16.8923     0.0000     4.0000 </r>
       <r>   -16.8155     0.0000     4.0000 </r>
       <r>   -16.7388     0.0000     4.0000 </r>
       <r>   -16.6620     0.0000     4.0000 </r>
       <r>   -16.5852     0.0000     4.0000 </r>
       <r>   -16.5084     0.0000     4.0000 </r>
       <r>   -16.4317     0.0000     4.0000 </r>
       <r>   -16.3549     0.0000     4.0000 </r>
       <r>   -16.2781     0.0000     4.0000 </r>
       <r>   -16.2014     0.0000     4.0000 </r>
       <r>   -16.1246     0.0010     4.0001 </r>
       <r>   -16.0478     0.9817     4.0754 </r>
       <r>   -15.9710    16.0314     5.3062 </r>
       <r>   -15.8943     8.9020     5.9897 </r>
       <r>   -15.8175     0.1343     6.0000 </r>
       <r>   -15.7407     0.0000     6.0000 </r>
       <r>   -15.6639     0.0000     6.0000 </r>
       <r>   -15.5872     0.0000     6.0000 </r>
       <r>   -15.5104     0.0000     6.0000 </r>
       <r>   -15.4336     0.0000     6.0000 </r>
       <r>   -15.3568     0.0000     6.0000 </r>
       <r>   -15.2801     0.0000     6.0000 </r>
       <r>   -15.2033     0.0000     6.0000 </r>
       <r>   -15.1265     0.0000     6.0000 </r>
       <r>   -15.0497     0.0000     6.0000 </r>
       <r>   -14.9730     0.0000     6.0000 </r>
       <r>   -14.8962     0.0000     6.0000 </r>
       <r>   -14.8194     0.0000     6.0000 </r>
       <r>   -14.7426     0.0000     6.0000 </r>
       <r>   -14.6659     0.0000     6.0000 </r>
       <r>   -14.5891     0.0000     6.0000 </r>
       <r>   -14.5123     0.0000     6.0000 </r>
       <r>   -14.4355     0.0000     6.0000 </r>
       <r>   -14.3588     0.0000     6.0000 </r>
       <r>   -14.2820     0.0003     6.0000 </r>
       <r>   -14.2052     0.5495     6.0422 </r>
       <r>   -14.1285    13.9265     7.1114 </r>
       <r>   -14.0517    11.3032     7.9792 </r>
       <r>   -13.9749     0.2708     8.0000 </r>
       <r>   -13.8981     0.0001     8.0000 </r>
       <r>   -13.8214     0.0000     8.0000 </r>
       <r>   -13.7446     0.0000     8.0000 </r>
       <r>   -13.6678     0.0000     8.0000 </r>
       <r>   -13.5910     0.0000     8.0000 </r>
       <r>   -13.5143     0.0000     8.0000 </r>
       <r>   -13.4375     0.0000     8.0000 </r>
       <r>   -13.3607     0.0000     8.0000 </r>
       <r>   -13.2839     0.0000     8.0000 </r>
       <r>   -13.2072     0.0000     8.0000 </r>
       <r>   -13.1304     0.0000     8.0000 </r>
       <r>   -13.0536     0.0000     8.0000 </r>
       <r>   -12.9768     0.0000     8.0000 </r>
       <r>   -12.9001     0.0000     8.0000 </r>
       <r>   -12.8233     0.0000     8.0000 </r>
       <r>   -12.7465     0.0000     8.0000 </r>
       <r>   -12.6697     0.0000     8.0000 </r>
       <r>   -12.5930     0.0000     8.0000 </r>
       <r>   -12.5162     0.0000     8.0000 </r>
       <r>   -12.4394     0.0000     8.0000 </r>
       <r>   -12.3626     0.0000     8.0000 </r>
       <r>   -12.2859     0.0000     8.0000 </r>
       <r>   -12.2091     0.0000     8.0000 </r>
       <r>   -12.1323     0.0000     8.0000 </r>
       <r>   -12.0556     0.0000     8.0000 </r>
       <r>   -11.9788     0.0000     8.0000 </r>
       <r>   -11.9020     0.0000     8.0000 </r>
       <r>   -11.8252     0.0000     8.0000 </r>
       <r>   -11.7485     0.0000     8.0000 </r>
       <r>   -11.6717     0.0000     8.0000 </r>
       <r>   -11.5949     0.0756     8.0058 </r>
       <r>   -11.5181     7.1787     8.5569 </r>
       <r>   -11.4414    17.3218     9.8868 </r>
       <r>   -11.3646     1.4721     9.9998 </r>
       <r>   -11.2878     0.0023    10.0000 </r>
       <r>   -11.2110     0.0000    10.0000 </r>
       <r>   -11.1343     0.0000    10.0000 </r>
       <r>   -11.0575     0.0000    10.0000 </r>
       <r>   -10.9807     0.0135    10.0010 </r>
       <r>   -10.9039     3.4683    10.2673 </r>
       <r>   -10.8272    18.8156    11.7119 </r>
       <r>   -10.7504     3.7371    11.9988 </r>
       <r>   -10.6736     0.0159    12.0000 </r>
       <r>   -10.5968     0.0000    12.0000 </r>
       <r>   -10.5201     0.0000    12.0000 </r>
       <r>   -10.4433     0.0101    12.0008 </r>
       <r>   -10.3665     3.0404    12.2342 </r>
       <r>   -10.2898    18.7513    13.6738 </r>
       <r>   -10.2130     4.2277    13.9984 </r>
       <r>   -10.1362     0.0210    14.0000 </r>
       <r>   -10.0594     0.0000    14.0000 </r>
       <r>    -9.9827     0.0000    14.0000 </r>
       <r>    -9.9059     0.0000    14.0000 </r>
       <r>    -9.8291     0.0000    14.0000 </r>
       <r>    -9.7523     0.0000    14.0000 </r>
       <r>    -9.6756     0.0011    14.0001 </r>
       <r>    -9.5988     1.0441    14.0802 </r>
       <r>    -9.5220    16.2412    15.3272 </r>
       <r>    -9.4452     8.6404    15.9905 </r>
       <r>    -9.3685     0.1257    16.0002 </r>
       <r>    -9.2917     1.3976    16.1075 </r>
       <r>    -9.2149    17.1612    17.4250 </r>
       <r>    -9.1381     7.4075    17.9937 </r>
       <r>    -9.0614     0.0822    18.0000 </r>
       <r>    -8.9846     0.0000    18.0000 </r>
       <r>    -8.9078     0.0000    18.0000 </r>
       <r>    -8.8310     0.0000    18.0000 </r>
       <r>    -8.7543     0.0014    18.0001 </r>
       <r>    -8.6775     1.1499    18.0884 </r>
       <r>    -8.6007    17.0394    19.3966 </r>
       <r>    -8.5239    21.6415    21.0581 </r>
       <r>    -8.4472    12.5131    22.0188 </r>
       <r>    -8.3704    14.2990    23.1166 </r>
       <r>    -8.2936    11.2406    23.9795 </r>
       <r>    -8.2169     0.2664    24.0000 </r>
       <r>    -8.1401     0.0001    24.0000 </r>
       <r>    -8.0633     0.0000    24.0000 </r>
       <r>    -7.9865     0.0000    24.0000 </r>
       <r>    -7.9098     0.0000    24.0000 </r>
       <r>    -7.8330     0.0000    24.0000 </r>
       <r>    -7.7562     0.0000    24.0000 </r>
       <r>    -7.6794     0.0000    24.0000 </r>
       <r>    -7.6027     0.0000    24.0000 </r>
       <r>    -7.5259     0.0000    24.0000 </r>
       <r>    -7.4491     0.0000    24.0000 </r>
       <r>    -7.3723     0.0000    24.0000 </r>
       <r>    -7.2956     0.0000    24.0000 </r>
       <r>    -7.2188     0.0000    24.0000 </r>
       <r>    -7.1420     0.0000    24.0000 </r>
       <r>    -7.0652     0.0000    24.0000 </r>
       <r>    -6.9885     0.0000    24.0000 </r>
       <r>    -6.9117     0.0000    24.0000 </r>
       <r>    -6.8349     0.0000    24.0000 </r>
       <r>    -6.7581     0.0000    24.0000 </r>
       <r>    -6.6814     0.0000    24.0000 </r>
       <r>    -6.6046     0.0000    24.0000 </r>
       <r>    -6.5278     0.0000    24.0000 </r>
       <r>    -6.4510     0.0000    24.0000 </r>
       <r>    -6.3743     0.0000    24.0000 </r>
       <r>    -6.2975     0.0000    24.0000 </r>
       <r>    -6.2207     0.0472    24.0036 </r>
       <r>    -6.1440     5.9537    24.4607 </r>
       <r>    -6.0672    18.0744    25.8484 </r>
       <r>    -5.9904     1.9711    25.9997 </r>
       <r>    -5.9136     0.0041    26.0000 </r>
       <r>    -5.8369     0.0000    26.0000 </r>
       <r>    -5.7601     0.0000    26.0000 </r>
       <r>    -5.6833     0.0000    26.0000 </r>
       <r>    -5.6065     0.0000    26.0000 </r>
       <r>    -5.5298     0.0000    26.0000 </r>
       <r>    -5.4530     0.0000    26.0000 </r>
       <r>    -5.3762     0.0000    26.0000 </r>
       <r>    -5.2994     0.0000    26.0000 </r>
       <r>    -5.2227     0.0000    26.0000 </r>
       <r>    -5.1459     0.0000    26.0000 </r>
       <r>    -5.0691     0.0000    26.0000 </r>
       <r>    -4.9923     0.0000    26.0000 </r>
       <r>    -4.9156     0.0000    26.0000 </r>
       <r>    -4.8388     0.0000    26.0000 </r>
       <r>    -4.7620     0.0000    26.0000 </r>
       <r>    -4.6852     0.0000    26.0000 </r>
       <r>    -4.6085     0.0000    26.0000 </r>
       <r>    -4.5317     0.0000    26.0000 </r>
       <r>    -4.4549     0.0000    26.0000 </r>
       <r>    -4.3782     0.0000    26.0000 </r>
       <r>    -4.3014     0.0000    26.0000 </r>
       <r>    -4.2246     0.0000    26.0000 </r>
       <r>    -4.1478     0.0000    26.0000 </r>
       <r>    -4.0711     0.0000    26.0000 </r>
       <r>    -3.9943     0.0000    26.0000 </r>
       <r>    -3.9175     0.0000    26.0000 </r>
       <r>    -3.8407     0.0000    26.0000 </r>
       <r>    -3.7640     0.0000    26.0000 </r>
       <r>    -3.6872     0.0000    26.0000 </r>
       <r>    -3.6104     0.0000    26.0000 </r>
       <r>    -3.5336     0.0000    26.0000 </r>
       <r>    -3.4569     0.0000    26.0000 </r>
       <r>    -3.3801     0.0000    26.0000 </r>
       <r>    -3.3033     0.0000    26.0000 </r>
       <r>    -3.2265     0.0000    26.0000 </r>
       <r>    -3.1498     0.0000    26.0000 </r>
       <r>    -3.0730     0.0000    26.0000 </r>
       <r>    -2.9962     0.0000    26.0000 </r>
       <r>    -2.9194     0.0000    26.0000 </r>
       <r>    -2.8427     0.0000    26.0000 </r>
       <r>    -2.7659     0.0000    26.0000 </r>
       <r>    -2.6891     0.0000    26.0000 </r>
       <r>    -2.6123     0.0000    26.0000 </r>
       <r>    -2.5356     0.0000    26.0000 </r>
       <r>    -2.4588     0.0000    26.0000 </r>
       <r>    -2.3820     0.0000    26.0000 </r>
       <r>    -2.3053     0.0000    26.0000 </r>
       <r>    -2.2285     0.0000    26.0000 </r>
       <r>    -2.1517     0.0000    26.0000 </r>
       <r>    -2.0749     0.0000    26.0000 </r>
       <r>    -1.9982     0.0000    26.0000 </r>
       <r>    -1.9214     0.0000    26.0000 </r>
       <r>    -1.8446     0.0000    26.0000 </r>
       <r>    -1.7678     0.0000    26.0000 </r>
       <r>    -1.6911     0.0000    26.0000 </r>
       <r>    -1.6143     0.0000    26.0000 </r>
       <r>    -1.5375     0.0000    26.0000 </r>
       <r>    -1.4607     0.0000    26.0000 </r>
       <r>    -1.3840     0.0000    26.0000 </r>
       <r>    -1.3072     0.0000    26.0000 </r>
       <r>    -1.2304     0.0233    26.0018 </r>
       <r>    -1.1536     1.2896    26.1008 </r>
       <r>    -1.0769     3.5556    26.3738 </r>
       <r>    -1.0001     3.8442    26.6689 </r>
       <r>    -0.9233     2.0498    26.8263 </r>
       <r>    -0.8465     5.6870    27.2629 </r>
       <r>    -0.7698     3.1633    27.5057 </r>
       <r>    -0.6930     4.9147    27.8831 </r>
       <r>    -0.6162     4.6055    28.2367 </r>
       <r>    -0.5395     0.9195    28.3072 </r>
       <r>    -0.4627     4.4423    28.6483 </r>
       <r>    -0.3859     9.4467    29.3736 </r>
       <r>    -0.3091    10.1503    30.1528 </r>
       <r>    -0.2324    11.2255    31.0147 </r>
       <r>    -0.1556     8.0396    31.6319 </r>
       <r>    -0.0788     3.5960    31.9080 </r>
       <r>    -0.0020     7.9179    32.5159 </r>
       <r>     0.0747     6.0754    32.9823 </r>
       <r>     0.1515     7.9604    33.5935 </r>
       <r>     0.2283    11.7939    34.4989 </r>
       <r>     0.3051    16.7384    35.7840 </r>
       <r>     0.3818    18.1728    37.1792 </r>
       <r>     0.4586    11.6287    38.0720 </r>
       <r>     0.5354    15.3402    39.2497 </r>
       <r>     0.6122    11.1468    40.1055 </r>
       <r>     0.6889     6.5266    40.6066 </r>
       <r>     0.7657    13.1188    41.6138 </r>
       <r>     0.8425    18.7117    43.0503 </r>
       <r>     0.9193    22.7984    44.8007 </r>
       <r>     0.9960    18.8693    46.2493 </r>
       <r>     1.0728    14.3072    47.3478 </r>
       <r>     1.1496     5.7934    47.7925 </r>
       <r>     1.2264     2.4301    47.9791 </r>
       <r>     1.3031     0.2714    48.0000 </r>
       <r>     1.3799     0.0006    48.0000 </r>
       <r>     1.4567     0.0000    48.0000 </r>
       <r>     1.5334     0.0000    48.0000 </r>
       <r>     1.6102     0.0000    48.0000 </r>
       <r>     1.6870     0.0000    48.0000 </r>
       <r>     1.7638     0.0000    48.0000 </r>
       <r>     1.8405     0.0000    48.0000 </r>
       <r>     1.9173     0.0000    48.0000 </r>
       <r>     1.9941     0.0000    48.0000 </r>
       <r>     2.0709     0.0000    48.0000 </r>
       <r>     2.1476     0.0000    48.0000 </r>
       <r>     2.2244     0.0000    48.0000 </r>
      </set>
     </set>
    </array>
   </total>
  </dos>
 </calculation>
 <structure name="finalpos" >
  <crystal>
   <varray name="basis" >
    <v>       8.31557575       0.00000000       0.00000000 </v>
    <v>       5.54371716       9.60199979       0.00000000 </v>
    <v>       0.00000000       0.00000000      26.78963917 </v>
   </varray>
   <i name="volume">   2139.04972377 </i>
   <varray name="rec_basis" >
    <v>       0.12025626      -0.06942998       0.00000000 </v>
    <v>       0.00000000       0.10414497       0.00000000 </v>
    <v>       0.00000000       0.00000000       0.03732786 </v>
   </varray>
  </crystal>
  <varray name="positions" >
   <v>       0.52415772       0.38027495       0.37474189 </v>
   <v>       0.31852239       0.64928870       0.35523173 </v>
   <v>       0.33933354       0.50794731       0.36991092 </v>
   <v>       0.59179563       0.40078318       0.43427610 </v>
   <v>       0.30422928       0.48127787       0.33214221 </v>
   <v>       0.63701285       0.37859822       0.35352399 </v>
   <v>       0.52316834       0.28425225       0.38097191 </v>
   <v>       0.22118382       0.69507500       0.32442804 </v>
   <v>       0.22411903       0.50645283       0.38884436 </v>
   <v>       0.45204418       0.63669237       0.34354513 </v>
   <v>       0.63049633       0.30164237       0.45230919 </v>
   <v>       0.26620764       0.72428662       0.38597384 </v>
   <v>       0.71691723       0.40687149       0.42742644 </v>
   <v>       0.48827449       0.48888254       0.45562017 </v>
  </varray>
 </structure>
</modeling>
