  14  14   0   0
  0.1527893E+03  0.8315576E-09  0.1108743E-08  0.2678964E-08  0.5000000E-15
  1.000000000000000E-004
  CAR 
 unknown system                          
      2.21133740    -20.97100017  301     -5.89765109      1.00000000
    -20.971  0.0000E+00  0.0000E+00
    -20.894  0.0000E+00  0.0000E+00
    -20.816  0.0000E+00  0.0000E+00
    -20.739  0.0000E+00  0.0000E+00
    -20.662  0.0000E+00  0.0000E+00
    -20.585  0.0000E+00  0.0000E+00
    -20.507  0.0000E+00  0.0000E+00
    -20.430  0.0000E+00  0.0000E+00
    -20.353  0.0000E+00  0.0000E+00
    -20.276  0.0000E+00  0.0000E+00
    -20.198  0.2442E-13  0.1887E-14
    -20.121  0.1072E-06  0.8283E-08
    -20.044  0.4498E-02  0.3476E-03
    -19.966  0.2120E+01  0.1641E+00
    -19.889  0.1823E+02  0.1573E+01
    -19.812  0.5488E+01  0.1997E+01
    -19.735  0.3730E-01  0.2000E+01
    -19.657  0.3101E-05  0.2000E+01
    -19.580  0.2540E-11  0.2000E+01
    -19.503  0.0000E+00  0.2000E+01
    -19.426  0.0000E+00  0.2000E+01
    -19.348  0.0000E+00  0.2000E+01
    -19.271  0.0000E+00  0.2000E+01
    -19.194  0.0000E+00  0.2000E+01
    -19.116  0.0000E+00  0.2000E+01
    -19.039  0.0000E+00  0.2000E+01
    -18.962  0.0000E+00  0.2000E+01
    -18.885  0.0000E+00  0.2000E+01
    -18.807  0.0000E+00  0.2000E+01
    -18.730  0.0000E+00  0.2000E+01
    -18.653  0.0000E+00  0.2000E+01
    -18.575  0.0000E+00  0.2000E+01
    -18.498  0.0000E+00  0.2000E+01
    -18.421  0.0000E+00  0.2000E+01
    -18.344  0.0000E+00  0.2000E+01
    -18.266  0.0000E+00  0.2000E+01
    -18.189  0.0000E+00  0.2000E+01
    -18.112  0.0000E+00  0.2000E+01
    -18.035  0.0000E+00  0.2000E+01
    -17.957  0.0000E+00  0.2000E+01
    -17.880  0.0000E+00  0.2000E+01
    -17.803  0.0000E+00  0.2000E+01
    -17.725  0.0000E+00  0.2000E+01
    -17.648  0.0000E+00  0.2000E+01
    -17.571  0.0000E+00  0.2000E+01
    -17.494  0.0000E+00  0.2000E+01
    -17.416  0.1994E-08  0.2000E+01
    -17.339  0.3224E-03  0.2000E+01
    -17.262  0.5479E+00  0.2042E+01
    -17.185  0.1399E+02  0.3124E+01
    -17.107  0.1109E+02  0.3981E+01
    -17.030  0.2486E+00  0.4000E+01
    -16.953  0.7742E-04  0.4000E+01
    -16.875  0.2473E-09  0.4000E+01
    -16.798  0.0000E+00  0.4000E+01
    -16.721  0.1635E-08  0.4000E+01
    -16.644  0.2818E-03  0.4000E+01
    -16.566  0.5093E+00  0.4039E+01
    -16.489  0.1372E+02  0.5100E+01
    -16.412  0.1138E+02  0.5979E+01
    -16.335  0.2694E+00  0.6000E+01
    -16.257  0.8929E-04  0.6000E+01
    -16.180  0.3042E-09  0.6000E+01
    -16.103  0.0000E+00  0.6000E+01
    -16.025  0.0000E+00  0.6000E+01
    -15.948  0.0000E+00  0.6000E+01
    -15.871  0.0000E+00  0.6000E+01
    -15.794  0.0000E+00  0.6000E+01
    -15.716  0.0000E+00  0.6000E+01
    -15.639  0.0000E+00  0.6000E+01
    -15.562  0.0000E+00  0.6000E+01
    -15.485  0.0000E+00  0.6000E+01
    -15.407  0.0000E+00  0.6000E+01
    -15.330  0.0000E+00  0.6000E+01
    -15.253  0.0000E+00  0.6000E+01
    -15.175  0.0000E+00  0.6000E+01
    -15.098  0.0000E+00  0.6000E+01
    -15.021  0.0000E+00  0.6000E+01
    -14.944  0.0000E+00  0.6000E+01
    -14.866  0.0000E+00  0.6000E+01
    -14.789  0.0000E+00  0.6000E+01
    -14.712  0.0000E+00  0.6000E+01
    -14.634  0.0000E+00  0.6000E+01
    -14.557  0.0000E+00  0.6000E+01
    -14.480  0.0000E+00  0.6000E+01
    -14.403  0.0000E+00  0.6000E+01
    -14.325  0.4975E-13  0.6000E+01
    -14.248  0.1797E-06  0.6000E+01
    -14.171  0.6270E-02  0.6000E+01
    -14.094  0.2484E+01  0.6192E+01
    -14.016  0.1850E+02  0.7622E+01
    -13.939  0.4860E+01  0.7998E+01
    -13.862  0.2791E-01  0.8000E+01
    -13.784  0.1932E-05  0.8000E+01
    -13.707  0.1313E-11  0.8000E+01
    -13.630  0.0000E+00  0.8000E+01
    -13.553  0.0000E+00  0.8000E+01
    -13.475  0.0000E+00  0.8000E+01
    -13.398  0.0000E+00  0.8000E+01
    -13.321  0.0000E+00  0.8000E+01
    -13.244  0.0000E+00  0.8000E+01
    -13.166  0.0000E+00  0.8000E+01
    -13.089  0.0000E+00  0.8000E+01
    -13.012  0.0000E+00  0.8000E+01
    -12.934  0.0000E+00  0.8000E+01
    -12.857  0.0000E+00  0.8000E+01
    -12.780  0.0000E+00  0.8000E+01
    -12.703  0.0000E+00  0.8000E+01
    -12.625  0.0000E+00  0.8000E+01
    -12.548  0.0000E+00  0.8000E+01
    -12.471  0.0000E+00  0.8000E+01
    -12.394  0.0000E+00  0.8000E+01
    -12.316  0.0000E+00  0.8000E+01
    -12.239  0.0000E+00  0.8000E+01
    -12.162  0.0000E+00  0.8000E+01
    -12.084  0.0000E+00  0.8000E+01
    -12.007  0.0000E+00  0.8000E+01
    -11.930  0.0000E+00  0.8000E+01
    -11.853  0.0000E+00  0.8000E+01
    -11.775  0.6794E-10  0.8000E+01
    -11.698  0.3158E-04  0.8000E+01
    -11.621  0.1487E+00  0.8011E+01
    -11.544  0.9331E+01  0.8733E+01
    -11.466  0.1556E+02  0.9935E+01
    -11.389  0.8431E+00  0.1000E+02
    -11.312  0.7233E-03  0.1000E+02
    -11.234  0.6637E-08  0.1000E+02
    -11.157  0.0000E+00  0.1000E+02
    -11.080  0.0000E+00  0.1000E+02
    -11.003  0.0000E+00  0.1000E+02
    -10.925  0.0000E+00  0.1000E+02
    -10.848  0.4235E-09  0.1000E+02
    -10.771  0.1121E-03  0.1000E+02
    -10.693  0.3062E+00  0.1002E+02
    -10.616  0.1184E+02  0.1094E+02
    -10.539  0.1328E+02  0.1197E+02
    -10.462  0.4521E+00  0.1200E+02
    -10.384  0.9581E-02  0.1200E+02
    -10.307  0.2994E+01  0.1223E+02
    -10.230  0.1871E+02  0.1368E+02
    -10.153  0.4146E+01  0.1400E+02
    -10.075  0.1931E-01  0.1400E+02
     -9.998  0.1066E-05  0.1400E+02
     -9.921  0.5740E-12  0.1400E+02
     -9.843  0.0000E+00  0.1400E+02
     -9.766  0.5495E-09  0.1400E+02
     -9.689  0.1340E-03  0.1400E+02
     -9.612  0.3383E+00  0.1403E+02
     -9.534  0.1221E+02  0.1497E+02
     -9.457  0.1429E+02  0.1607E+02
     -9.380  0.1754E+02  0.1743E+02
     -9.303  0.7309E+01  0.1799E+02
     -9.225  0.7649E-01  0.1800E+02
     -9.148  0.1020E-04  0.1800E+02
     -9.071  0.4480E-07  0.1800E+02
     -8.993  0.2553E-02  0.1800E+02
     -8.916  0.1606E+01  0.1812E+02
     -8.839  0.1759E+02  0.1948E+02
     -8.762  0.6949E+01  0.2002E+02
     -8.684  0.1211E+02  0.2096E+02
     -8.607  0.1308E+02  0.2197E+02
     -8.530  0.4290E+00  0.2200E+02
     -8.453  0.6719E-01  0.2201E+02
     -8.375  0.6943E+01  0.2254E+02
     -8.298  0.1738E+02  0.2388E+02
     -8.221  0.1488E+01  0.2400E+02
     -8.143  0.2191E-02  0.2400E+02
     -8.066  0.3546E-07  0.2400E+02
     -7.989  0.5747E-14  0.2400E+02
     -7.912  0.0000E+00  0.2400E+02
     -7.834  0.0000E+00  0.2400E+02
     -7.757  0.0000E+00  0.2400E+02
     -7.680  0.0000E+00  0.2400E+02
     -7.603  0.0000E+00  0.2400E+02
     -7.525  0.0000E+00  0.2400E+02
     -7.448  0.0000E+00  0.2400E+02
     -7.371  0.0000E+00  0.2400E+02
     -7.293  0.0000E+00  0.2400E+02
     -7.216  0.0000E+00  0.2400E+02
     -7.139  0.0000E+00  0.2400E+02
     -7.062  0.0000E+00  0.2400E+02
     -6.984  0.0000E+00  0.2400E+02
     -6.907  0.0000E+00  0.2400E+02
     -6.830  0.0000E+00  0.2400E+02
     -6.752  0.0000E+00  0.2400E+02
     -6.675  0.0000E+00  0.2400E+02
     -6.598  0.0000E+00  0.2400E+02
     -6.521  0.0000E+00  0.2400E+02
     -6.443  0.1081E-12  0.2400E+02
     -6.366  0.3174E-06  0.2400E+02
     -6.289  0.9009E-02  0.2400E+02
     -6.212  0.2942E+01  0.2423E+02
     -6.134  0.1870E+02  0.2567E+02
     -6.057  0.4212E+01  0.2600E+02
     -5.980  0.2003E-01  0.2600E+02
     -5.902  0.1131E-05  0.2600E+02
     -5.825  0.6235E-12  0.2600E+02
     -5.748  0.0000E+00  0.2600E+02
     -5.671  0.0000E+00  0.2600E+02
     -5.593  0.0000E+00  0.2600E+02
     -5.516  0.0000E+00  0.2600E+02
     -5.439  0.0000E+00  0.2600E+02
     -5.362  0.0000E+00  0.2600E+02
     -5.284  0.0000E+00  0.2600E+02
     -5.207  0.0000E+00  0.2600E+02
     -5.130  0.0000E+00  0.2600E+02
     -5.052  0.0000E+00  0.2600E+02
     -4.975  0.0000E+00  0.2600E+02
     -4.898  0.0000E+00  0.2600E+02
     -4.821  0.0000E+00  0.2600E+02
     -4.743  0.0000E+00  0.2600E+02
     -4.666  0.0000E+00  0.2600E+02
     -4.589  0.0000E+00  0.2600E+02
     -4.512  0.0000E+00  0.2600E+02
     -4.434  0.0000E+00  0.2600E+02
     -4.357  0.0000E+00  0.2600E+02
     -4.280  0.0000E+00  0.2600E+02
     -4.202  0.0000E+00  0.2600E+02
     -4.125  0.0000E+00  0.2600E+02
     -4.048  0.0000E+00  0.2600E+02
     -3.971  0.0000E+00  0.2600E+02
     -3.893  0.0000E+00  0.2600E+02
     -3.816  0.0000E+00  0.2600E+02
     -3.739  0.0000E+00  0.2600E+02
     -3.662  0.0000E+00  0.2600E+02
     -3.584  0.0000E+00  0.2600E+02
     -3.507  0.0000E+00  0.2600E+02
     -3.430  0.0000E+00  0.2600E+02
     -3.352  0.0000E+00  0.2600E+02
     -3.275  0.0000E+00  0.2600E+02
     -3.198  0.0000E+00  0.2600E+02
     -3.121  0.0000E+00  0.2600E+02
     -3.043  0.0000E+00  0.2600E+02
     -2.966  0.0000E+00  0.2600E+02
     -2.889  0.0000E+00  0.2600E+02
     -2.812  0.0000E+00  0.2600E+02
     -2.734  0.0000E+00  0.2600E+02
     -2.657  0.0000E+00  0.2600E+02
     -2.580  0.0000E+00  0.2600E+02
     -2.502  0.0000E+00  0.2600E+02
     -2.425  0.0000E+00  0.2600E+02
     -2.348  0.0000E+00  0.2600E+02
     -2.271  0.0000E+00  0.2600E+02
     -2.193  0.0000E+00  0.2600E+02
     -2.116  0.0000E+00  0.2600E+02
     -2.039  0.0000E+00  0.2600E+02
     -1.961  0.0000E+00  0.2600E+02
     -1.884  0.0000E+00  0.2600E+02
     -1.807  0.0000E+00  0.2600E+02
     -1.730  0.0000E+00  0.2600E+02
     -1.652  0.0000E+00  0.2600E+02
     -1.575  0.0000E+00  0.2600E+02
     -1.498  0.0000E+00  0.2600E+02
     -1.421  0.0000E+00  0.2600E+02
     -1.343  0.1448E-12  0.2600E+02
     -1.266  0.2207E-06  0.2600E+02
     -1.189  0.3301E-02  0.2600E+02
     -1.111  0.6013E+00  0.2605E+02
     -1.034  0.3189E+01  0.2629E+02
     -0.957  0.3711E+01  0.2658E+02
     -0.880  0.2379E+01  0.2676E+02
     -0.802  0.4518E+01  0.2711E+02
     -0.725  0.4389E+01  0.2745E+02
     -0.648  0.3245E+01  0.2770E+02
     -0.571  0.6473E+01  0.2820E+02
     -0.493  0.1297E+01  0.2830E+02
     -0.416  0.3874E+01  0.2860E+02
     -0.339  0.7586E+01  0.2919E+02
     -0.261  0.9052E+01  0.2989E+02
     -0.184  0.1215E+02  0.3083E+02
     -0.107  0.9134E+01  0.3153E+02
     -0.030  0.7422E+01  0.3211E+02
      0.048  0.6636E+01  0.3262E+02
      0.125  0.6037E+01  0.3309E+02
      0.202  0.7599E+01  0.3367E+02
      0.279  0.1189E+02  0.3459E+02
      0.357  0.1660E+02  0.3587E+02
      0.434  0.2140E+02  0.3753E+02
      0.511  0.1034E+02  0.3833E+02
      0.589  0.1678E+02  0.3962E+02
      0.666  0.1018E+02  0.4041E+02
      0.743  0.6645E+01  0.4092E+02
      0.820  0.1375E+02  0.4199E+02
      0.898  0.2008E+02  0.4354E+02
      0.975  0.1797E+02  0.4493E+02
      1.052  0.1962E+02  0.4644E+02
      1.129  0.1182E+02  0.4736E+02
      1.207  0.7902E+01  0.4797E+02
      1.284  0.4325E+00  0.4800E+02
      1.361  0.6630E-03  0.4800E+02
      1.439  0.1420E-07  0.4800E+02
      1.516  0.2873E-14  0.4800E+02
      1.593  0.0000E+00  0.4800E+02
      1.670  0.0000E+00  0.4800E+02
      1.748  0.0000E+00  0.4800E+02
      1.825  0.0000E+00  0.4800E+02
      1.902  0.0000E+00  0.4800E+02
      1.980  0.0000E+00  0.4800E+02
      2.057  0.0000E+00  0.4800E+02
      2.134  0.0000E+00  0.4800E+02
      2.211  0.0000E+00  0.4800E+02
