       N       E                     dE             d eps       ncg     rms          rms(c)
DAV:   1    -0.849495413830E+02   -0.84950E+02   -0.31803E+01   632   0.204E+01    0.136E+01
DAV:   2    -0.786419493004E+02    0.63076E+01   -0.11378E+01   528   0.127E+01    0.682E+00
DAV:   3    -0.768550271152E+02    0.17869E+01   -0.44908E+00   560   0.833E+00    0.283E+00
DAV:   4    -0.765459725513E+02    0.30905E+00   -0.42675E-01   576   0.301E+00    0.520E-01
DAV:   5    -0.765126282645E+02    0.33344E-01   -0.75920E-02   504   0.118E+00    0.297E-01
DAV:   6    -0.764993728569E+02    0.13255E-01   -0.17338E-02   512   0.781E-01    0.188E-01
DAV:   7    -0.764875254904E+02    0.11847E-01   -0.56887E-03   432   0.424E-01    0.104E-01
DAV:   8    -0.764806378277E+02    0.68877E-02   -0.12143E-02   432   0.483E-01    0.827E-02
DAV:   9    -0.764812193858E+02   -0.58156E-03   -0.83150E-04   456   0.167E-01
   1 F= -.76481219E+02 E0= -.76481219E+02  d E =-.462211E-14
