<?xml version="1.0" encoding="ISO-8859-1"?>
<modeling>
 <generator>
  <i name="program" type="string">vasp </i>
  <i name="version" type="string">5.4.4.18Apr17-6-g9f103f2a35  </i>
  <i name="subversion" type="string">(build Dec 31 2018 11:41:54) complex            parallel </i>
  <i name="platform" type="string">LinuxIFC </i>
  <i name="date" type="string">2022 11 04 </i>
  <i name="time" type="string">14:40:27 </i>
 </generator>
 <incar>
  <i type="int" name="ISTART">     1</i>
  <i type="string" name="PREC">acc</i>
  <i type="string" name="ALGO"> normal</i>
  <i type="logical" name="ADDGRID"> T  </i>
  <i type="int" name="ISPIN">     1</i>
  <i type="int" name="ICHARG">     2</i>
  <i type="int" name="NELM">   100</i>
  <i type="int" name="IBRION">    -1</i>
  <i name="EDIFF">      0.00100000</i>
  <i name="ENCUT">    400.00000000</i>
  <i type="string" name="LREAL"> Auto</i>
  <i type="int" name="ISMEAR">     0</i>
  <i name="SIGMA">      0.05000000</i>
  <i type="logical" name="LWAVE"> T  </i>
  <i type="logical" name="LCHARG"> F  </i>
  <i type="logical" name="LBEEFENS"> T  </i>
  <v type="int" name="KPOINT_BSE">    -1     0     0     0</v>
  <i type="int" name="NELM">   100</i>
  <i type="string" name="GGA"> BF</i>
  <i type="logical" name="LUSE_VDW"> T  </i>
  <i name="Zab_VDW">     -1.88670000</i>
 </incar>
 <structure name="primitive_cell" >
  <crystal>
   <varray name="basis" >
    <v>       8.31557575       0.00000000       0.00000000 </v>
    <v>       5.54371716       9.60199979       0.00000000 </v>
    <v>       0.00000000       0.00000000      26.78963917 </v>
   </varray>
   <i name="volume">   2139.04972377 </i>
   <varray name="rec_basis" >
    <v>       0.12025626      -0.06942998       0.00000000 </v>
    <v>       0.00000000       0.10414497       0.00000000 </v>
    <v>       0.00000000       0.00000000       0.03732786 </v>
   </varray>
  </crystal>
  <varray name="positions" >
   <v>       0.47821380       0.37477505       0.35170537 </v>
   <v>      -0.41984265       0.37747553       0.32706338 </v>
   <v>      -0.49925607       0.27421059       0.36443903 </v>
   <v>       0.36498734       0.39581026       0.32184532 </v>
   <v>       0.37055747       0.49858989       0.38561550 </v>
   <v>       0.26994940       0.49355969       0.41028548 </v>
   <v>      -0.45175714       0.44594356       0.42872918 </v>
   <v>      -0.40515628       0.34187566       0.44351848 </v>
   <v>       0.35128696      -0.36227868       0.37161008 </v>
   <v>      -0.34031897       0.45733077       0.41226013 </v>
   <v>       0.47021438      -0.37772858       0.34931079 </v>
   <v>       0.22557974      -0.29854925       0.34942576 </v>
   <v>       0.48043453      -0.47663090       0.45833017 </v>
   <v>       0.34256564      -0.30205685       0.40480575 </v>
  </varray>
 </structure>
 <varray name="primitive_index" >
  <v type="int" >        1 </v>
  <v type="int" >        6 </v>
  <v type="int" >        7 </v>
  <v type="int" >        5 </v>
  <v type="int" >        3 </v>
  <v type="int" >        9 </v>
  <v type="int" >        4 </v>
  <v type="int" >       11 </v>
  <v type="int" >        2 </v>
  <v type="int" >       13 </v>
  <v type="int" >       10 </v>
  <v type="int" >        8 </v>
  <v type="int" >       14 </v>
  <v type="int" >       12 </v>
 </varray>
 <kpoints>
  <generation param="Monkhorst-Pack">
   <v type="int" name="divisions">       4        4        1 </v>
   <v name="usershift">      0.00000000       0.00000000       0.00000000 </v>
   <v name="genvec1">      0.25000000      -0.00000000       0.00000000 </v>
   <v name="genvec2">      0.00000000       0.25000000       0.00000000 </v>
   <v name="genvec3">      0.00000000       0.00000000       1.00000000 </v>
   <v name="shift">      0.50000000       0.50000000       0.00000000 </v>
  </generation>
  <varray name="kpointlist" >
   <v>       0.12500000       0.12500000       0.00000000 </v>
   <v>       0.37500000       0.12500000       0.00000000 </v>
   <v>      -0.37500000       0.12500000       0.00000000 </v>
   <v>      -0.12500000       0.12500000       0.00000000 </v>
   <v>       0.12500000       0.37500000       0.00000000 </v>
   <v>       0.37500000       0.37500000       0.00000000 </v>
   <v>      -0.37500000       0.37500000       0.00000000 </v>
   <v>      -0.12500000       0.37500000       0.00000000 </v>
  </varray>
  <varray name="weights" >
   <v>       0.12500000 </v>
   <v>       0.12500000 </v>
   <v>       0.12500000 </v>
   <v>       0.12500000 </v>
   <v>       0.12500000 </v>
   <v>       0.12500000 </v>
   <v>       0.12500000 </v>
   <v>       0.12500000 </v>
  </varray>
 </kpoints>
 <parameters>
  <separator name="general" >
   <i type="string" name="SYSTEM">unknown system</i>
   <i type="logical" name="LCOMPAT"> F  </i>
  </separator>
  <separator name="electronic" >
   <i type="string" name="PREC">acc</i>
   <i name="ENMAX">    400.00000000</i>
   <i name="ENAUG">    644.87300000</i>
   <i name="EDIFF">      0.00100000</i>
   <i type="int" name="IALGO">    38</i>
   <i type="int" name="IWAVPR">    10</i>
   <i type="int" name="NBANDS">    24</i>
   <i name="NELECT">     26.00000000</i>
   <i type="int" name="TURBO">     0</i>
   <i type="int" name="IRESTART">     0</i>
   <i type="int" name="NREBOOT">     0</i>
   <i type="int" name="NMIN">     0</i>
   <i name="EREF">      0.00000000</i>
   <separator name="electronic smearing" >
    <i type="int" name="ISMEAR">     0</i>
    <i name="SIGMA">      0.05000000</i>
    <i name="KSPACING">      0.50000000</i>
    <i type="logical" name="KGAMMA"> T  </i>
   </separator>
   <separator name="electronic projectors" >
    <i type="logical" name="LREAL"> T  </i>
    <v name="ROPT">     -0.00025000     -0.00025000</v>
    <i type="int" name="LMAXPAW">  -100</i>
    <i type="int" name="LMAXMIX">     2</i>
    <i type="logical" name="NLSPLINE"> F  </i>
   </separator>
   <separator name="electronic startup" >
    <i type="int" name="ISTART">     1</i>
    <i type="int" name="ICHARG">     2</i>
    <i type="int" name="INIWAV">     1</i>
   </separator>
   <separator name="electronic spin" >
    <i type="int" name="ISPIN">     1</i>
    <i type="logical" name="LNONCOLLINEAR"> F  </i>
    <v name="MAGMOM">      1.00000000      1.00000000      1.00000000      1.00000000      1.00000000      1.00000000      1.00000000      1.00000000      1.00000000      1.00000000      1.00000000      1.00000000      1.00000000      1.00000000</v>
    <i name="NUPDOWN">     -1.00000000</i>
    <i type="logical" name="LSORBIT"> F  </i>
    <v name="SAXIS">      0.00000000      0.00000000      1.00000000</v>
    <i type="logical" name="LSPIRAL"> F  </i>
    <v name="QSPIRAL">      0.00000000      0.00000000      0.00000000</v>
    <i type="logical" name="LZEROZ"> F  </i>
   </separator>
   <separator name="electronic exchange-correlation" >
    <i type="logical" name="LASPH"> F  </i>
    <i type="logical" name="LMETAGGA"> F  </i>
   </separator>
   <separator name="electronic convergence" >
    <i type="int" name="NELM">   100</i>
    <i type="int" name="NELMDL">     0</i>
    <i type="int" name="NELMIN">     2</i>
    <i name="ENINI">    400.00000000</i>
    <separator name="electronic convergence detail" >
     <i type="logical" name="LDIAG"> T  </i>
     <i type="logical" name="LSUBROT"> F  </i>
     <i name="WEIMIN">      0.00000000</i>
     <i name="EBREAK">      0.00001042</i>
     <i name="DEPER">      0.30000000</i>
     <i type="int" name="NRMM">     4</i>
     <i name="TIME">      0.40000000</i>
    </separator>
   </separator>
   <separator name="electronic mixer" >
    <i name="AMIX">      0.40000000</i>
    <i name="BMIX">      1.00000000</i>
    <i name="AMIN">      0.10000000</i>
    <i name="AMIX_MAG">      1.60000000</i>
    <i name="BMIX_MAG">      1.00000000</i>
    <separator name="electronic mixer details" >
     <i type="int" name="IMIX">     4</i>
     <i type="logical" name="MIXFIRST"> F  </i>
     <i type="int" name="MAXMIX">   -45</i>
     <i name="WC">    100.00000000</i>
     <i type="int" name="INIMIX">     1</i>
     <i type="int" name="MIXPRE">     1</i>
     <i type="int" name="MREMOVE">     5</i>
    </separator>
   </separator>
   <separator name="electronic dipolcorrection" >
    <i type="logical" name="LDIPOL"> F  </i>
    <i type="logical" name="LMONO"> F  </i>
    <i type="int" name="IDIPOL">     0</i>
    <i name="EPSILON">      1.00000000</i>
    <v name="DIPOL">   -100.00000000   -100.00000000   -100.00000000</v>
    <i name="EFIELD">      0.00000000</i>
   </separator>
  </separator>
  <separator name="grids" >
   <i type="int" name="NGX">    54</i>
   <i type="int" name="NGY">    72</i>
   <i type="int" name="NGZ">   180</i>
   <i type="int" name="NGXF">   108</i>
   <i type="int" name="NGYF">   144</i>
   <i type="int" name="NGZF">   360</i>
   <i type="logical" name="ADDGRID"> T  </i>
  </separator>
  <separator name="ionic" >
   <i type="int" name="NSW">     0</i>
   <i type="int" name="IBRION">    -1</i>
   <i type="int" name="MDALGO">     0</i>
   <i type="int" name="ISIF">     2</i>
   <i name="PSTRESS">      0.00000000</i>
   <i name="EDIFFG">      0.01000000</i>
   <i type="int" name="NFREE">     0</i>
   <i name="POTIM">      0.50000000</i>
   <i name="SMASS">     -3.00000000</i>
   <i name="SCALEE">      1.00000000</i>
  </separator>
  <separator name="ionic md" >
   <i name="TEBEG">      0.00010000</i>
   <i name="TEEND">      0.00010000</i>
   <i type="int" name="NBLOCK">     1</i>
   <i type="int" name="KBLOCK">     1</i>
   <i type="int" name="NPACO">   256</i>
   <i name="APACO">     16.00000000</i>
  </separator>
  <separator name="symmetry" >
   <i type="int" name="ISYM">     2</i>
   <i name="SYMPREC">      0.00001000</i>
  </separator>
  <separator name="dos" >
   <i type="int" name="LORBIT">     0</i>
   <v name="RWIGS">     -1.00000000     -1.00000000</v>
   <i type="int" name="NEDOS">   301</i>
   <i name="EMIN">     10.00000000</i>
   <i name="EMAX">    -10.00000000</i>
   <i name="EFERMI">      0.00000000</i>
  </separator>
  <separator name="writing" >
   <i type="int" name="NWRITE">     2</i>
   <i type="logical" name="LWAVE"> T  </i>
   <i type="logical" name="LDOWNSAMPLE"> F  </i>
   <i type="logical" name="LCHARG"> F  </i>
   <i type="logical" name="LPARD"> F  </i>
   <i type="logical" name="LVTOT"> F  </i>
   <i type="logical" name="LVHAR"> F  </i>
   <i type="logical" name="LELF"> F  </i>
   <i type="logical" name="LOPTICS"> F  </i>
   <v name="STM">      0.00000000      0.00000000      0.00000000      0.00000000      0.00000000      0.00000000      0.00000000</v>
  </separator>
  <separator name="performance" >
   <i type="int" name="NPAR">     8</i>
   <i type="int" name="NSIM">     4</i>
   <i type="int" name="NBLK">    -1</i>
   <i type="logical" name="LPLANE"> T  </i>
   <i type="logical" name="LSCALAPACK"> T  </i>
   <i type="logical" name="LSCAAWARE"> F  </i>
   <i type="logical" name="LSCALU"> F  </i>
   <i type="logical" name="LASYNC"> F  </i>
   <i type="logical" name="LORBITALREAL"> F  </i>
  </separator>
  <separator name="miscellaneous" >
   <i type="int" name="IDIOT">     3</i>
   <i type="int" name="ISPECIAL">     0</i>
   <i type="logical" name="LMUSIC"> F  </i>
   <v name="POMASS">     12.01100000      1.00000000</v>
   <v name="DARWINR">      0.00000000      0.00000000</v>
   <v name="DARWINV">      1.00000000      1.00000000</v>
   <i type="logical" name="LCORR"> T  </i>
  </separator>
  <i type="logical" name="GGA_COMPAT"> T  </i>
  <i type="logical" name="LBERRY"> F  </i>
  <i type="int" name="ICORELEVEL">     0</i>
  <i type="logical" name="LDAU"> F  </i>
  <i type="int" name="I_CONSTRAINED_M">     0</i>
  <separator name="electronic exchange-correlation" >
   <i type="string" name="GGA">BF</i>
   <i type="int" name="VOSKOWN">     0</i>
   <i type="logical" name="LHFCALC"> F  </i>
   <i type="string" name="PRECFOCK"></i>
   <i type="logical" name="LSYMGRAD"> F  </i>
   <i type="logical" name="LHFONE"> F  </i>
   <i type="logical" name="LRHFCALC"> F  </i>
   <i type="logical" name="LTHOMAS"> F  </i>
   <i type="logical" name="LMODELHF"> F  </i>
   <i name="ENCUT4O">     -1.00000000</i>
   <i type="int" name="EXXOEP">     0</i>
   <i type="int" name="FOURORBIT">     0</i>
   <i name="AEXX">      0.00000000</i>
   <i name="HFALPHA">      0.00000000</i>
   <i name="MCALPHA">      0.00000000</i>
   <i name="ALDAX">      1.00000000</i>
   <i name="AGGAX">      1.00000000</i>
   <i name="ALDAC">      1.00000000</i>
   <i name="AGGAC">      1.00000000</i>
   <i type="int" name="NKREDX">     1</i>
   <i type="int" name="NKREDY">     1</i>
   <i type="int" name="NKREDZ">     1</i>
   <i type="logical" name="SHIFTRED"> F  </i>
   <i type="logical" name="ODDONLY"> F  </i>
   <i type="logical" name="EVENONLY"> F  </i>
   <i type="int" name="LMAXFOCK">     0</i>
   <i type="int" name="NMAXFOCKAE">     0</i>
   <i type="logical" name="LFOCKAEDFT"> F  </i>
   <i name="HFSCREEN">      0.00000000</i>
   <i name="HFSCREENC">      0.00000000</i>
   <i type="int" name="NBANDSGWLOW">     0</i>
  </separator>
  <separator name="vdW DFT" >
   <i type="logical" name="LUSE_VDW"> T  </i>
   <i name="Zab_VDW">     -1.88670000</i>
   <i name="PARAM1">      0.12340000</i>
   <i name="PARAM2">      1.00000000</i>
   <i name="PARAM3">      0.00000000</i>
  </separator>
  <separator name="model GW" >
   <i type="int" name="MODEL_GW">     0</i>
   <i name="MODEL_EPS0">     91.67355959</i>
   <i name="MODEL_ALPHA">      1.00000000</i>
  </separator>
  <separator name="linear response parameters" >
   <i type="logical" name="LEPSILON"> F  </i>
   <i type="logical" name="LRPA"> F  </i>
   <i type="logical" name="LNABLA"> F  </i>
   <i type="logical" name="LVEL"> F  </i>
   <i type="int" name="KINTER">     0</i>
   <i name="CSHIFT">      0.10000000</i>
   <i name="OMEGAMAX">     -1.00000000</i>
   <i name="DEG_THRESHOLD">      0.00200000</i>
   <i name="RTIME">     -0.10000000</i>
   <i name="WPLASMAI">      0.00000000</i>
   <v name="DFIELD">      0.00000000      0.00000000      0.00000000</v>
   <v name="WPLASMA">      0.00000000      0.00000000      0.00000000      0.00000000      0.00000000      0.00000000      0.00000000      0.00000000      0.00000000</v>
  </separator>
  <separator name="orbital magnetization" >
   <i type="logical" name="NUCIND"> F  </i>
   <v name="MAGPOS">      0.00000000      0.00000000      0.00000000</v>
   <i type="logical" name="LNICSALL"> T  </i>
   <i type="logical" name="ORBITALMAG"> F  </i>
   <i type="logical" name="LMAGBLOCH"> F  </i>
   <i type="logical" name="LCHIMAG"> F  </i>
   <i type="logical" name="LGAUGE"> T  </i>
   <i type="int" name="MAGATOM">     0</i>
   <v name="MAGDIPOL">      0.00000000      0.00000000      0.00000000</v>
   <v name="AVECCONST">      0.00000000      0.00000000      0.00000000</v>
  </separator>
  <separator name="response functions" >
   <i type="logical" name="LADDER"> F  </i>
   <i type="logical" name="LRPAFORCE"> F  </i>
   <i type="logical" name="LFXC"> F  </i>
   <i type="logical" name="LHARTREE"> T  </i>
   <i type="int" name="IBSE">     0</i>
   <v type="int" name="KPOINT">    -1     0     0     0</v>
   <i type="logical" name="LTCTE"> F  </i>
   <i type="logical" name="LTETE"> F  </i>
   <i type="logical" name="LTRIPLET"> F  </i>
   <i type="logical" name="LFXCEPS"> F  </i>
   <i type="logical" name="LFXHEG"> F  </i>
   <i type="int" name="NATURALO">     2</i>
   <i type="logical" name="L2ORDER"> F  </i>
   <i type="logical" name="LMP2LT"> F  </i>
   <i type="logical" name="LUSEW"> F  </i>
   <i name="ENCUTGW">     -2.00000000</i>
   <i name="ENCUTGWSOFT">     -2.00000000</i>
   <i name="ENCUTLF">     -1.00000000</i>
   <i type="int" name="LMAXMP2">    -1</i>
   <i name="SCISSOR">      0.00000000</i>
   <i type="int" name="NOMEGA">     0</i>
   <i type="int" name="NOMEGAR">     0</i>
   <i type="int" name="NBANDSGW">    -1</i>
   <i type="int" name="NBANDSO">    -1</i>
   <i type="int" name="NBANDSV">    -1</i>
   <i type="int" name="NELM">   100</i>
   <i type="int" name="NELMHF">     1</i>
   <i type="int" name="DIM">     3</i>
   <i type="int" name="ANTIRES">     0</i>
   <i name="OMEGAMAX">    -30.00000000</i>
   <i name="OMEGAMIN">    -30.00000000</i>
   <i name="OMEGATL">   -200.00000000</i>
   <i type="int" name="OMEGAGRID">   140</i>
   <i name="CSHIFT">     -0.10000000</i>
   <i type="logical" name="SELFENERGY"> F  </i>
   <i type="logical" name="LSPECTRAL"> F  </i>
   <i type="logical" name="LSPECTRALGW"> F  </i>
   <i type="logical" name="LSINGLES"> F  </i>
   <i type="logical" name="LFERMIGW"> F  </i>
   <i type="logical" name="ODDONLYGW"> F  </i>
   <i type="logical" name="EVENONLYGW"> F  </i>
   <i type="int" name="NKREDLFX">     1</i>
   <i type="int" name="NKREDLFY">     1</i>
   <i type="int" name="NKREDLFZ">     1</i>
   <i type="int" name="MAXMEM">  2800</i>
   <i type="int" name="TELESCOPE">     0</i>
   <i type="int" name="TAUPAR">     1</i>
   <i type="int" name="OMEGAPAR">    -1</i>
   <i name="LAMBDA">      1.00000000</i>
  </separator>
  <separator name="External order field" >
   <i name="OFIELD_KAPPA">      0.00000000</i>
   <v name="OFIELD_K">      0.00000000      0.00000000      0.00000000</v>
   <i name="OFIELD_Q6_NEAR">      0.00000000</i>
   <i name="OFIELD_Q6_FAR">      0.00000000</i>
   <i name="OFIELD_A">      0.00000000</i>
  </separator>
 </parameters>
 <atominfo>
  <atoms>      14 </atoms>
  <types>       2 </types>
  <array name="atoms" >
   <dimension dim="1">ion</dimension>
   <field type="string">element</field>
   <field type="int">atomtype</field>
   <set>
    <rc><c>C </c><c>   1</c></rc>
    <rc><c>C </c><c>   1</c></rc>
    <rc><c>C </c><c>   1</c></rc>
    <rc><c>C </c><c>   1</c></rc>
    <rc><c>H </c><c>   2</c></rc>
    <rc><c>H </c><c>   2</c></rc>
    <rc><c>H </c><c>   2</c></rc>
    <rc><c>H </c><c>   2</c></rc>
    <rc><c>H </c><c>   2</c></rc>
    <rc><c>H </c><c>   2</c></rc>
    <rc><c>H </c><c>   2</c></rc>
    <rc><c>H </c><c>   2</c></rc>
    <rc><c>H </c><c>   2</c></rc>
    <rc><c>H </c><c>   2</c></rc>
   </set>
  </array>
  <array name="atomtypes" >
   <dimension dim="1">type</dimension>
   <field type="int">atomspertype</field>
   <field type="string">element</field>
   <field>mass</field>
   <field>valence</field>
   <field type="string">pseudopotential</field>
   <set>
    <rc><c>   4</c><c>C </c><c>     12.01100000</c><c>      4.00000000</c><c> PAW_PBE C 08Apr2002                    </c></rc>
    <rc><c>  10</c><c>H </c><c>      1.00000000</c><c>      1.00000000</c><c> PAW_PBE H 15Jun2001                    </c></rc>
   </set>
  </array>
 </atominfo>
 <structure name="initialpos" >
  <crystal>
   <varray name="basis" >
    <v>       8.31557575       0.00000000       0.00000000 </v>
    <v>       5.54371716       9.60199979       0.00000000 </v>
    <v>       0.00000000       0.00000000      26.78963917 </v>
   </varray>
   <i name="volume">   2139.04972377 </i>
   <varray name="rec_basis" >
    <v>       0.12025626      -0.06942998       0.00000000 </v>
    <v>       0.00000000       0.10414497       0.00000000 </v>
    <v>       0.00000000       0.00000000       0.03732786 </v>
   </varray>
  </crystal>
  <varray name="positions" >
   <v>       0.47821380       0.37477505       0.35170537 </v>
   <v>       0.35128696       0.63772132       0.37161008 </v>
   <v>       0.37055747       0.49858989       0.38561550 </v>
   <v>       0.54824286       0.44594356       0.42872918 </v>
   <v>       0.36498734       0.39581026       0.32184532 </v>
   <v>       0.58015735       0.37747553       0.32706338 </v>
   <v>       0.50074393       0.27421059       0.36443903 </v>
   <v>       0.22557974       0.70145075       0.34942576 </v>
   <v>       0.26994940       0.49355969       0.41028548 </v>
   <v>       0.47021438       0.62227142       0.34931079 </v>
   <v>       0.59484372       0.34187566       0.44351848 </v>
   <v>       0.34256564       0.69794315       0.40480575 </v>
   <v>       0.65968103       0.45733077       0.41226013 </v>
   <v>       0.48043453       0.52336910       0.45833017 </v>
  </varray>
 </structure>
 <calculation>
  <scstep>
   <time name="dav">    3.24    3.25</time>
   <time name="total">   15.38   15.45</time>
   <energy>
    <i name="alphaZ">      1.28650428 </i>
    <i name="ewald">   1749.63736198 </i>
    <i name="hartreedc">  -2190.01070816 </i>
    <i name="XCdc">     78.80940768 </i>
    <i name="pawpsdc">    152.91373464 </i>
    <i name="pawaedc">   -159.42092291 </i>
    <i name="eentropy">     -0.00000000 </i>
    <i name="bandstr">   -438.34074781 </i>
    <i name="atom">    720.17582891 </i>
    <i name="e_fr_energy">    -84.94954138 </i>
    <i name="e_wo_entrp">    -84.94954138 </i>
    <i name="e_0_energy">    -84.94954138 </i>
   </energy>
  </scstep>
  <scstep>
   <time name="dav">    2.80    2.80</time>
   <time name="total">   14.47   14.51</time>
   <energy>
    <i name="e_fr_energy">    -78.64194930 </i>
    <i name="e_wo_entrp">    -78.64194930 </i>
    <i name="e_0_energy">    -78.64194930 </i>
   </energy>
  </scstep>
  <scstep>
   <time name="dav">    2.94    2.95</time>
   <time name="total">   14.56   14.60</time>
   <energy>
    <i name="e_fr_energy">    -76.85502712 </i>
    <i name="e_wo_entrp">    -76.85502712 </i>
    <i name="e_0_energy">    -76.85502712 </i>
   </energy>
  </scstep>
  <scstep>
   <time name="dav">    3.01    3.02</time>
   <time name="total">   14.71   14.74</time>
   <energy>
    <i name="e_fr_energy">    -76.54597255 </i>
    <i name="e_wo_entrp">    -76.54597255 </i>
    <i name="e_0_energy">    -76.54597255 </i>
   </energy>
  </scstep>
  <scstep>
   <time name="dav">    2.70    2.71</time>
   <time name="total">   14.44   14.48</time>
   <energy>
    <i name="e_fr_energy">    -76.51262826 </i>
    <i name="e_wo_entrp">    -76.51262826 </i>
    <i name="e_0_energy">    -76.51262826 </i>
   </energy>
  </scstep>
  <scstep>
   <time name="dav">    2.75    2.75</time>
   <time name="total">   14.47   14.51</time>
   <energy>
    <i name="e_fr_energy">    -76.49937286 </i>
    <i name="e_wo_entrp">    -76.49937286 </i>
    <i name="e_0_energy">    -76.49937286 </i>
   </energy>
  </scstep>
  <scstep>
   <time name="dav">    2.34    2.35</time>
   <time name="total">   13.74   13.77</time>
   <energy>
    <i name="e_fr_energy">    -76.48752549 </i>
    <i name="e_wo_entrp">    -76.48752549 </i>
    <i name="e_0_energy">    -76.48752549 </i>
   </energy>
  </scstep>
  <scstep>
   <time name="dav">    2.38    2.38</time>
   <time name="total">   13.72   13.76</time>
   <energy>
    <i name="e_fr_energy">    -76.48063783 </i>
    <i name="e_wo_entrp">    -76.48063783 </i>
    <i name="e_0_energy">    -76.48063783 </i>
   </energy>
  </scstep>
  <scstep>
   <time name="dav">    2.44    2.45</time>
   <time name="total">   13.48   13.52</time>
   <energy>
    <i name="alphaZ">      1.28650428 </i>
    <i name="ewald">   1749.63736198 </i>
    <i name="hartreedc">  -2324.96693235 </i>
    <i name="XCdc">     86.15338449 </i>
    <i name="pawpsdc">    314.50845512 </i>
    <i name="pawaedc">   -321.15995571 </i>
    <i name="eentropy">     -0.00000000 </i>
    <i name="bandstr">   -302.11586612 </i>
    <i name="atom">    720.17582891 </i>
    <i name="e_fr_energy">    -76.48121939 </i>
    <i name="e_wo_entrp">    -76.48121939 </i>
    <i name="e_0_energy">    -76.48121939 </i>
   </energy>
  </scstep>
  <structure>
   <crystal>
    <varray name="basis" >
     <v>       8.31557575       0.00000000       0.00000000 </v>
     <v>       5.54371716       9.60199979       0.00000000 </v>
     <v>       0.00000000       0.00000000      26.78963917 </v>
    </varray>
    <i name="volume">   2139.04972377 </i>
    <varray name="rec_basis" >
     <v>       0.12025626      -0.06942998       0.00000000 </v>
     <v>       0.00000000       0.10414497       0.00000000 </v>
     <v>       0.00000000       0.00000000       0.03732786 </v>
    </varray>
   </crystal>
   <varray name="positions" >
    <v>       0.47821380       0.37477505       0.35170537 </v>
    <v>       0.35128696       0.63772132       0.37161008 </v>
    <v>       0.37055747       0.49858989       0.38561550 </v>
    <v>       0.54824286       0.44594356       0.42872918 </v>
    <v>       0.36498734       0.39581026       0.32184532 </v>
    <v>       0.58015735       0.37747553       0.32706338 </v>
    <v>       0.50074393       0.27421059       0.36443903 </v>
    <v>       0.22557974       0.70145075       0.34942576 </v>
    <v>       0.26994940       0.49355969       0.41028548 </v>
    <v>       0.47021438       0.62227142       0.34931079 </v>
    <v>       0.59484372       0.34187566       0.44351848 </v>
    <v>       0.34256564       0.69794315       0.40480575 </v>
    <v>       0.65968103       0.45733077       0.41226013 </v>
    <v>       0.48043453       0.52336910       0.45833017 </v>
   </varray>
  </structure>
  <varray name="forces" >
   <v>      -4.19982677       1.42393244      -3.57387127 </v>
   <v>      -1.12698396       0.36269314      -0.74594568 </v>
   <v>       4.74479772      -2.38342488       3.45119835 </v>
   <v>      -1.69547879       1.46536587      -0.05821919 </v>
   <v>       0.86033060      -0.54374779       0.35347025 </v>
   <v>       0.59179914      -0.27302798       0.66556001 </v>
   <v>       0.77566991      -0.06288909       0.51675312 </v>
   <v>       0.08332520       0.06940797      -0.08426644 </v>
   <v>      -0.51361426       0.37602298      -0.69295089 </v>
   <v>       0.00802973      -0.02134874       0.03355478 </v>
   <v>       0.04396785      -0.00461750      -0.16760609 </v>
   <v>      -0.03647931       0.02327921      -0.01912050 </v>
   <v>       0.02111863      -0.18862773      -0.01252398 </v>
   <v>       0.44334431      -0.24301790       0.33396753 </v>
  </varray>
  <varray name="stress" >
   <v>      -2.94406467       0.97778571      -0.04898353 </v>
   <v>       0.97778571      -1.54683841       0.95023406 </v>
   <v>      -0.04898353       0.95023406       0.16982504 </v>
  </varray>
  <energy>
   <i name="e_fr_energy">    -76.48121939 </i>
   <i name="e_wo_entrp">    -76.48121939 </i>
   <i name="e_0_energy">     -0.00000000 </i>
  </energy>
  <time name="totalsc">  152.23  153.05</time>
  <eigenvalues>
   <array>
    <dimension dim="1">band</dimension>
    <dimension dim="2">kpoint</dimension>
    <dimension dim="3">spin</dimension>
    <field>eigene</field>
    <field>occ</field>
    <set>
     <set comment="spin 1">
      <set comment="kpoint 1">
       <r>  -19.9173    1.0000 </r>
       <r>  -17.1901    1.0000 </r>
       <r>  -16.4935    1.0000 </r>
       <r>  -14.0474    1.0000 </r>
       <r>  -11.5314    1.0000 </r>
       <r>  -10.6135    1.0000 </r>
       <r>  -10.2648    1.0000 </r>
       <r>   -9.5332    1.0000 </r>
       <r>   -9.3999    1.0000 </r>
       <r>   -8.8617    1.0000 </r>
       <r>   -8.6833    1.0000 </r>
       <r>   -8.3539    1.0000 </r>
       <r>   -6.1691    1.0000 </r>
       <r>   -1.0797    0.0000 </r>
       <r>   -0.4644    0.0000 </r>
       <r>    0.0575    0.0000 </r>
       <r>    0.2117    0.0000 </r>
       <r>    0.3681    0.0000 </r>
       <r>    0.4551    0.0000 </r>
       <r>    0.5642    0.0000 </r>
       <r>    0.7827    0.0000 </r>
       <r>    0.8307    0.0000 </r>
       <r>    1.0270    0.0000 </r>
       <r>    1.1108    0.0000 </r>
      </set>
      <set comment="kpoint 2">
       <r>  -19.9172    1.0000 </r>
       <r>  -17.1900    1.0000 </r>
       <r>  -16.4935    1.0000 </r>
       <r>  -14.0476    1.0000 </r>
       <r>  -11.5316    1.0000 </r>
       <r>  -10.6135    1.0000 </r>
       <r>  -10.2649    1.0000 </r>
       <r>   -9.5328    1.0000 </r>
       <r>   -9.3999    1.0000 </r>
       <r>   -8.8617    1.0000 </r>
       <r>   -8.6815    1.0000 </r>
       <r>   -8.3534    1.0000 </r>
       <r>   -6.1687    1.0000 </r>
       <r>   -0.8184    0.0000 </r>
       <r>   -0.2013    0.0000 </r>
       <r>   -0.0826    0.0000 </r>
       <r>    0.0868    0.0000 </r>
       <r>    0.3303    0.0000 </r>
       <r>    0.3517    0.0000 </r>
       <r>    0.5334    0.0000 </r>
       <r>    0.6467    0.0000 </r>
       <r>    0.7569    0.0000 </r>
       <r>    0.9218    0.0000 </r>
       <r>    1.0105    0.0000 </r>
      </set>
      <set comment="kpoint 3">
       <r>  -19.9172    1.0000 </r>
       <r>  -17.1900    1.0000 </r>
       <r>  -16.4935    1.0000 </r>
       <r>  -14.0476    1.0000 </r>
       <r>  -11.5315    1.0000 </r>
       <r>  -10.6135    1.0000 </r>
       <r>  -10.2650    1.0000 </r>
       <r>   -9.5328    1.0000 </r>
       <r>   -9.3998    1.0000 </r>
       <r>   -8.8618    1.0000 </r>
       <r>   -8.6814    1.0000 </r>
       <r>   -8.3535    1.0000 </r>
       <r>   -6.1687    1.0000 </r>
       <r>   -0.6299    0.0000 </r>
       <r>   -0.2702    0.0000 </r>
       <r>   -0.2031    0.0000 </r>
       <r>   -0.0167    0.0000 </r>
       <r>    0.2920    0.0000 </r>
       <r>    0.3993    0.0000 </r>
       <r>    0.4460    0.0000 </r>
       <r>    0.5523    0.0000 </r>
       <r>    0.8737    0.0000 </r>
       <r>    0.9275    0.0000 </r>
       <r>    0.9835    0.0000 </r>
      </set>
      <set comment="kpoint 4">
       <r>  -19.9173    1.0000 </r>
       <r>  -17.1900    1.0000 </r>
       <r>  -16.4935    1.0000 </r>
       <r>  -14.0474    1.0000 </r>
       <r>  -11.5313    1.0000 </r>
       <r>  -10.6135    1.0000 </r>
       <r>  -10.2649    1.0000 </r>
       <r>   -9.5332    1.0000 </r>
       <r>   -9.3998    1.0000 </r>
       <r>   -8.8619    1.0000 </r>
       <r>   -8.6834    1.0000 </r>
       <r>   -8.3539    1.0000 </r>
       <r>   -6.1693    1.0000 </r>
       <r>   -1.0120    0.0000 </r>
       <r>   -0.4046    0.0000 </r>
       <r>   -0.1486    0.0000 </r>
       <r>    0.1286    0.0000 </r>
       <r>    0.3819    0.0000 </r>
       <r>    0.5100    0.0000 </r>
       <r>    0.6063    0.0000 </r>
       <r>    0.7378    0.0000 </r>
       <r>    0.8669    0.0000 </r>
       <r>    0.9979    0.0000 </r>
       <r>    1.1224    0.0000 </r>
      </set>
      <set comment="kpoint 5">
       <r>  -19.9172    1.0000 </r>
       <r>  -17.1901    1.0000 </r>
       <r>  -16.4935    1.0000 </r>
       <r>  -14.0474    1.0000 </r>
       <r>  -11.5312    1.0000 </r>
       <r>  -10.6135    1.0000 </r>
       <r>  -10.2648    1.0000 </r>
       <r>   -9.5331    1.0000 </r>
       <r>   -9.3998    1.0000 </r>
       <r>   -8.8620    1.0000 </r>
       <r>   -8.6834    1.0000 </r>
       <r>   -8.3539    1.0000 </r>
       <r>   -6.1692    1.0000 </r>
       <r>   -0.9461    0.0000 </r>
       <r>   -0.3478    0.0000 </r>
       <r>   -0.3157    0.0000 </r>
       <r>    0.1865    0.0000 </r>
       <r>    0.2251    0.0000 </r>
       <r>    0.3631    0.0000 </r>
       <r>    0.6066    0.0000 </r>
       <r>    0.8324    0.0000 </r>
       <r>    0.9095    0.0000 </r>
       <r>    1.0106    0.0000 </r>
       <r>    1.1408    0.0000 </r>
      </set>
      <set comment="kpoint 6">
       <r>  -19.9173    1.0000 </r>
       <r>  -17.1901    1.0000 </r>
       <r>  -16.4935    1.0000 </r>
       <r>  -14.0476    1.0000 </r>
       <r>  -11.5317    1.0000 </r>
       <r>  -10.6135    1.0000 </r>
       <r>  -10.2649    1.0000 </r>
       <r>   -9.5330    1.0000 </r>
       <r>   -9.4001    1.0000 </r>
       <r>   -8.8617    1.0000 </r>
       <r>   -8.6816    1.0000 </r>
       <r>   -8.3533    1.0000 </r>
       <r>   -6.1685    1.0000 </r>
       <r>   -0.8192    0.0000 </r>
       <r>   -0.2925    0.0000 </r>
       <r>   -0.1977    0.0000 </r>
       <r>    0.2232    0.0000 </r>
       <r>    0.3086    0.0000 </r>
       <r>    0.3716    0.0000 </r>
       <r>    0.5890    0.0000 </r>
       <r>    0.7386    0.0000 </r>
       <r>    0.8649    0.0000 </r>
       <r>    1.0124    0.0000 </r>
       <r>    1.0516    0.0000 </r>
      </set>
      <set comment="kpoint 7">
       <r>  -19.9172    1.0000 </r>
       <r>  -17.1900    1.0000 </r>
       <r>  -16.4935    1.0000 </r>
       <r>  -14.0476    1.0000 </r>
       <r>  -11.5316    1.0000 </r>
       <r>  -10.6135    1.0000 </r>
       <r>  -10.2649    1.0000 </r>
       <r>   -9.5329    1.0000 </r>
       <r>   -9.3999    1.0000 </r>
       <r>   -8.8618    1.0000 </r>
       <r>   -8.6815    1.0000 </r>
       <r>   -8.3534    1.0000 </r>
       <r>   -6.1686    1.0000 </r>
       <r>   -0.6317    0.0000 </r>
       <r>   -0.3693    0.0000 </r>
       <r>   -0.2121    0.0000 </r>
       <r>   -0.0252    0.0000 </r>
       <r>    0.2468    0.0000 </r>
       <r>    0.3795    0.0000 </r>
       <r>    0.5331    0.0000 </r>
       <r>    0.8426    0.0000 </r>
       <r>    0.9102    0.0000 </r>
       <r>    0.9669    0.0000 </r>
       <r>    1.1231    0.0000 </r>
      </set>
      <set comment="kpoint 8">
       <r>  -19.9173    1.0000 </r>
       <r>  -17.1901    1.0000 </r>
       <r>  -16.4935    1.0000 </r>
       <r>  -14.0474    1.0000 </r>
       <r>  -11.5312    1.0000 </r>
       <r>  -10.6136    1.0000 </r>
       <r>  -10.2649    1.0000 </r>
       <r>   -9.5332    1.0000 </r>
       <r>   -9.3997    1.0000 </r>
       <r>   -8.8622    1.0000 </r>
       <r>   -8.6834    1.0000 </r>
       <r>   -8.3542    1.0000 </r>
       <r>   -6.1694    1.0000 </r>
       <r>   -0.7558    0.0000 </r>
       <r>   -0.6157    0.0000 </r>
       <r>   -0.1689    0.0000 </r>
       <r>   -0.0460    0.0000 </r>
       <r>    0.3680    0.0000 </r>
       <r>    0.3929    0.0000 </r>
       <r>    0.5496    0.0000 </r>
       <r>    0.7900    0.0000 </r>
       <r>    0.8815    0.0000 </r>
       <r>    1.0133    0.0000 </r>
       <r>    1.1576    0.0000 </r>
      </set>
     </set>
    </set>
   </array>
  </eigenvalues>
  <separator name="orbital magnetization" >
   <v name="MAGDIPOLOUT">      0.00000000      0.00000000      0.00000000</v>
  </separator>
  <dos>
   <i name="efermi">     -5.89765109 </i>
   <total>
    <array>
     <dimension dim="1">gridpoints</dimension>
     <dimension dim="2">spin</dimension>
     <field>energy</field>
     <field>total</field>
     <field>integrated</field>
     <set>
      <set comment="spin 1">
       <r>   -20.9710     0.0000     0.0000 </r>
       <r>   -20.8937     0.0000     0.0000 </r>
       <r>   -20.8165     0.0000     0.0000 </r>
       <r>   -20.7392     0.0000     0.0000 </r>
       <r>   -20.6619     0.0000     0.0000 </r>
       <r>   -20.5846     0.0000     0.0000 </r>
       <r>   -20.5074     0.0000     0.0000 </r>
       <r>   -20.4301     0.0000     0.0000 </r>
       <r>   -20.3528     0.0000     0.0000 </r>
       <r>   -20.2755     0.0000     0.0000 </r>
       <r>   -20.1983     0.0000     0.0000 </r>
       <r>   -20.1210     0.0000     0.0000 </r>
       <r>   -20.0437     0.0045     0.0003 </r>
       <r>   -19.9664     2.1195     0.1641 </r>
       <r>   -19.8892    18.2321     1.5730 </r>
       <r>   -19.8119     5.4883     1.9971 </r>
       <r>   -19.7346     0.0373     2.0000 </r>
       <r>   -19.6573     0.0000     2.0000 </r>
       <r>   -19.5801     0.0000     2.0000 </r>
       <r>   -19.5028     0.0000     2.0000 </r>
       <r>   -19.4255     0.0000     2.0000 </r>
       <r>   -19.3482     0.0000     2.0000 </r>
       <r>   -19.2710     0.0000     2.0000 </r>
       <r>   -19.1937     0.0000     2.0000 </r>
       <r>   -19.1164     0.0000     2.0000 </r>
       <r>   -19.0391     0.0000     2.0000 </r>
       <r>   -18.9619     0.0000     2.0000 </r>
       <r>   -18.8846     0.0000     2.0000 </r>
       <r>   -18.8073     0.0000     2.0000 </r>
       <r>   -18.7300     0.0000     2.0000 </r>
       <r>   -18.6528     0.0000     2.0000 </r>
       <r>   -18.5755     0.0000     2.0000 </r>
       <r>   -18.4982     0.0000     2.0000 </r>
       <r>   -18.4209     0.0000     2.0000 </r>
       <r>   -18.3437     0.0000     2.0000 </r>
       <r>   -18.2664     0.0000     2.0000 </r>
       <r>   -18.1891     0.0000     2.0000 </r>
       <r>   -18.1118     0.0000     2.0000 </r>
       <r>   -18.0346     0.0000     2.0000 </r>
       <r>   -17.9573     0.0000     2.0000 </r>
       <r>   -17.8800     0.0000     2.0000 </r>
       <r>   -17.8027     0.0000     2.0000 </r>
       <r>   -17.7255     0.0000     2.0000 </r>
       <r>   -17.6482     0.0000     2.0000 </r>
       <r>   -17.5709     0.0000     2.0000 </r>
       <r>   -17.4936     0.0000     2.0000 </r>
       <r>   -17.4164     0.0000     2.0000 </r>
       <r>   -17.3391     0.0003     2.0000 </r>
       <r>   -17.2618     0.5479     2.0424 </r>
       <r>   -17.1846    13.9938     3.1237 </r>
       <r>   -17.1073    11.0911     3.9808 </r>
       <r>   -17.0300     0.2486     4.0000 </r>
       <r>   -16.9527     0.0001     4.0000 </r>
       <r>   -16.8755     0.0000     4.0000 </r>
       <r>   -16.7982     0.0000     4.0000 </r>
       <r>   -16.7209     0.0000     4.0000 </r>
       <r>   -16.6436     0.0003     4.0000 </r>
       <r>   -16.5664     0.5093     4.0394 </r>
       <r>   -16.4891    13.7231     5.0998 </r>
       <r>   -16.4118    11.3795     5.9792 </r>
       <r>   -16.3345     0.2694     6.0000 </r>
       <r>   -16.2573     0.0001     6.0000 </r>
       <r>   -16.1800     0.0000     6.0000 </r>
       <r>   -16.1027     0.0000     6.0000 </r>
       <r>   -16.0254     0.0000     6.0000 </r>
       <r>   -15.9482     0.0000     6.0000 </r>
       <r>   -15.8709     0.0000     6.0000 </r>
       <r>   -15.7936     0.0000     6.0000 </r>
       <r>   -15.7163     0.0000     6.0000 </r>
       <r>   -15.6391     0.0000     6.0000 </r>
       <r>   -15.5618     0.0000     6.0000 </r>
       <r>   -15.4845     0.0000     6.0000 </r>
       <r>   -15.4072     0.0000     6.0000 </r>
       <r>   -15.3300     0.0000     6.0000 </r>
       <r>   -15.2527     0.0000     6.0000 </r>
       <r>   -15.1754     0.0000     6.0000 </r>
       <r>   -15.0981     0.0000     6.0000 </r>
       <r>   -15.0209     0.0000     6.0000 </r>
       <r>   -14.9436     0.0000     6.0000 </r>
       <r>   -14.8663     0.0000     6.0000 </r>
       <r>   -14.7890     0.0000     6.0000 </r>
       <r>   -14.7118     0.0000     6.0000 </r>
       <r>   -14.6345     0.0000     6.0000 </r>
       <r>   -14.5572     0.0000     6.0000 </r>
       <r>   -14.4799     0.0000     6.0000 </r>
       <r>   -14.4027     0.0000     6.0000 </r>
       <r>   -14.3254     0.0000     6.0000 </r>
       <r>   -14.2481     0.0000     6.0000 </r>
       <r>   -14.1708     0.0063     6.0005 </r>
       <r>   -14.0936     2.4836     6.1924 </r>
       <r>   -14.0163    18.5041     7.6223 </r>
       <r>   -13.9390     4.8599     7.9978 </r>
       <r>   -13.8617     0.0279     8.0000 </r>
       <r>   -13.7845     0.0000     8.0000 </r>
       <r>   -13.7072     0.0000     8.0000 </r>
       <r>   -13.6299     0.0000     8.0000 </r>
       <r>   -13.5527     0.0000     8.0000 </r>
       <r>   -13.4754     0.0000     8.0000 </r>
       <r>   -13.3981     0.0000     8.0000 </r>
       <r>   -13.3208     0.0000     8.0000 </r>
       <r>   -13.2436     0.0000     8.0000 </r>
       <r>   -13.1663     0.0000     8.0000 </r>
       <r>   -13.0890     0.0000     8.0000 </r>
       <r>   -13.0117     0.0000     8.0000 </r>
       <r>   -12.9345     0.0000     8.0000 </r>
       <r>   -12.8572     0.0000     8.0000 </r>
       <r>   -12.7799     0.0000     8.0000 </r>
       <r>   -12.7026     0.0000     8.0000 </r>
       <r>   -12.6254     0.0000     8.0000 </r>
       <r>   -12.5481     0.0000     8.0000 </r>
       <r>   -12.4708     0.0000     8.0000 </r>
       <r>   -12.3935     0.0000     8.0000 </r>
       <r>   -12.3163     0.0000     8.0000 </r>
       <r>   -12.2390     0.0000     8.0000 </r>
       <r>   -12.1617     0.0000     8.0000 </r>
       <r>   -12.0844     0.0000     8.0000 </r>
       <r>   -12.0072     0.0000     8.0000 </r>
       <r>   -11.9299     0.0000     8.0000 </r>
       <r>   -11.8526     0.0000     8.0000 </r>
       <r>   -11.7753     0.0000     8.0000 </r>
       <r>   -11.6981     0.0000     8.0000 </r>
       <r>   -11.6208     0.1487     8.0115 </r>
       <r>   -11.5435     9.3309     8.7325 </r>
       <r>   -11.4662    15.5584     9.9348 </r>
       <r>   -11.3890     0.8431     9.9999 </r>
       <r>   -11.3117     0.0007    10.0000 </r>
       <r>   -11.2344     0.0000    10.0000 </r>
       <r>   -11.1571     0.0000    10.0000 </r>
       <r>   -11.0799     0.0000    10.0000 </r>
       <r>   -11.0026     0.0000    10.0000 </r>
       <r>   -10.9253     0.0000    10.0000 </r>
       <r>   -10.8480     0.0000    10.0000 </r>
       <r>   -10.7708     0.0001    10.0000 </r>
       <r>   -10.6935     0.3062    10.0237 </r>
       <r>   -10.6162    11.8425    10.9388 </r>
       <r>   -10.5389    13.2806    11.9650 </r>
       <r>   -10.4617     0.4521    12.0000 </r>
       <r>   -10.3844     0.0096    12.0007 </r>
       <r>   -10.3071     2.9935    12.2320 </r>
       <r>   -10.2299    18.7131    13.6781 </r>
       <r>   -10.1526     4.1465    13.9985 </r>
       <r>   -10.0753     0.0193    14.0000 </r>
       <r>    -9.9980     0.0000    14.0000 </r>
       <r>    -9.9208     0.0000    14.0000 </r>
       <r>    -9.8435     0.0000    14.0000 </r>
       <r>    -9.7662     0.0000    14.0000 </r>
       <r>    -9.6889     0.0001    14.0000 </r>
       <r>    -9.6117     0.3383    14.0262 </r>
       <r>    -9.5344    12.2088    14.9696 </r>
       <r>    -9.4571    14.2891    16.0738 </r>
       <r>    -9.3798    17.5417    17.4293 </r>
       <r>    -9.3026     7.3090    17.9941 </r>
       <r>    -9.2253     0.0765    18.0000 </r>
       <r>    -9.1480     0.0000    18.0000 </r>
       <r>    -9.0707     0.0000    18.0000 </r>
       <r>    -8.9935     0.0026    18.0002 </r>
       <r>    -8.9162     1.6064    18.1243 </r>
       <r>    -8.8389    17.5891    19.4835 </r>
       <r>    -8.7616     6.9493    20.0205 </r>
       <r>    -8.6844    12.1102    20.9563 </r>
       <r>    -8.6071    13.0768    21.9668 </r>
       <r>    -8.5298     0.4290    22.0000 </r>
       <r>    -8.4525     0.0672    22.0052 </r>
       <r>    -8.3753     6.9429    22.5417 </r>
       <r>    -8.2980    17.3813    23.8848 </r>
       <r>    -8.2207     1.4884    23.9998 </r>
       <r>    -8.1434     0.0022    24.0000 </r>
       <r>    -8.0662     0.0000    24.0000 </r>
       <r>    -7.9889     0.0000    24.0000 </r>
       <r>    -7.9116     0.0000    24.0000 </r>
       <r>    -7.8343     0.0000    24.0000 </r>
       <r>    -7.7571     0.0000    24.0000 </r>
       <r>    -7.6798     0.0000    24.0000 </r>
       <r>    -7.6025     0.0000    24.0000 </r>
       <r>    -7.5252     0.0000    24.0000 </r>
       <r>    -7.4480     0.0000    24.0000 </r>
       <r>    -7.3707     0.0000    24.0000 </r>
       <r>    -7.2934     0.0000    24.0000 </r>
       <r>    -7.2161     0.0000    24.0000 </r>
       <r>    -7.1389     0.0000    24.0000 </r>
       <r>    -7.0616     0.0000    24.0000 </r>
       <r>    -6.9843     0.0000    24.0000 </r>
       <r>    -6.9070     0.0000    24.0000 </r>
       <r>    -6.8298     0.0000    24.0000 </r>
       <r>    -6.7525     0.0000    24.0000 </r>
       <r>    -6.6752     0.0000    24.0000 </r>
       <r>    -6.5980     0.0000    24.0000 </r>
       <r>    -6.5207     0.0000    24.0000 </r>
       <r>    -6.4434     0.0000    24.0000 </r>
       <r>    -6.3661     0.0000    24.0000 </r>
       <r>    -6.2889     0.0090    24.0007 </r>
       <r>    -6.2116     2.9416    24.2280 </r>
       <r>    -6.1343    18.6987    25.6729 </r>
       <r>    -6.0570     4.2125    25.9985 </r>
       <r>    -5.9798     0.0200    26.0000 </r>
       <r>    -5.9025     0.0000    26.0000 </r>
       <r>    -5.8252     0.0000    26.0000 </r>
       <r>    -5.7479     0.0000    26.0000 </r>
       <r>    -5.6707     0.0000    26.0000 </r>
       <r>    -5.5934     0.0000    26.0000 </r>
       <r>    -5.5161     0.0000    26.0000 </r>
       <r>    -5.4388     0.0000    26.0000 </r>
       <r>    -5.3616     0.0000    26.0000 </r>
       <r>    -5.2843     0.0000    26.0000 </r>
       <r>    -5.2070     0.0000    26.0000 </r>
       <r>    -5.1297     0.0000    26.0000 </r>
       <r>    -5.0525     0.0000    26.0000 </r>
       <r>    -4.9752     0.0000    26.0000 </r>
       <r>    -4.8979     0.0000    26.0000 </r>
       <r>    -4.8206     0.0000    26.0000 </r>
       <r>    -4.7434     0.0000    26.0000 </r>
       <r>    -4.6661     0.0000    26.0000 </r>
       <r>    -4.5888     0.0000    26.0000 </r>
       <r>    -4.5115     0.0000    26.0000 </r>
       <r>    -4.4343     0.0000    26.0000 </r>
       <r>    -4.3570     0.0000    26.0000 </r>
       <r>    -4.2797     0.0000    26.0000 </r>
       <r>    -4.2024     0.0000    26.0000 </r>
       <r>    -4.1252     0.0000    26.0000 </r>
       <r>    -4.0479     0.0000    26.0000 </r>
       <r>    -3.9706     0.0000    26.0000 </r>
       <r>    -3.8933     0.0000    26.0000 </r>
       <r>    -3.8161     0.0000    26.0000 </r>
       <r>    -3.7388     0.0000    26.0000 </r>
       <r>    -3.6615     0.0000    26.0000 </r>
       <r>    -3.5842     0.0000    26.0000 </r>
       <r>    -3.5070     0.0000    26.0000 </r>
       <r>    -3.4297     0.0000    26.0000 </r>
       <r>    -3.3524     0.0000    26.0000 </r>
       <r>    -3.2751     0.0000    26.0000 </r>
       <r>    -3.1979     0.0000    26.0000 </r>
       <r>    -3.1206     0.0000    26.0000 </r>
       <r>    -3.0433     0.0000    26.0000 </r>
       <r>    -2.9661     0.0000    26.0000 </r>
       <r>    -2.8888     0.0000    26.0000 </r>
       <r>    -2.8115     0.0000    26.0000 </r>
       <r>    -2.7342     0.0000    26.0000 </r>
       <r>    -2.6570     0.0000    26.0000 </r>
       <r>    -2.5797     0.0000    26.0000 </r>
       <r>    -2.5024     0.0000    26.0000 </r>
       <r>    -2.4251     0.0000    26.0000 </r>
       <r>    -2.3479     0.0000    26.0000 </r>
       <r>    -2.2706     0.0000    26.0000 </r>
       <r>    -2.1933     0.0000    26.0000 </r>
       <r>    -2.1160     0.0000    26.0000 </r>
       <r>    -2.0388     0.0000    26.0000 </r>
       <r>    -1.9615     0.0000    26.0000 </r>
       <r>    -1.8842     0.0000    26.0000 </r>
       <r>    -1.8069     0.0000    26.0000 </r>
       <r>    -1.7297     0.0000    26.0000 </r>
       <r>    -1.6524     0.0000    26.0000 </r>
       <r>    -1.5751     0.0000    26.0000 </r>
       <r>    -1.4978     0.0000    26.0000 </r>
       <r>    -1.4206     0.0000    26.0000 </r>
       <r>    -1.3433     0.0000    26.0000 </r>
       <r>    -1.2660     0.0000    26.0000 </r>
       <r>    -1.1887     0.0033    26.0003 </r>
       <r>    -1.1115     0.6013    26.0467 </r>
       <r>    -1.0342     3.1891    26.2932 </r>
       <r>    -0.9569     3.7113    26.5799 </r>
       <r>    -0.8796     2.3795    26.7638 </r>
       <r>    -0.8024     4.5182    27.1130 </r>
       <r>    -0.7251     4.3888    27.4521 </r>
       <r>    -0.6478     3.2453    27.7029 </r>
       <r>    -0.5705     6.4729    28.2031 </r>
       <r>    -0.4933     1.2971    28.3033 </r>
       <r>    -0.4160     3.8743    28.6027 </r>
       <r>    -0.3387     7.5864    29.1889 </r>
       <r>    -0.2614     9.0519    29.8884 </r>
       <r>    -0.1842    12.1474    30.8271 </r>
       <r>    -0.1069     9.1345    31.5329 </r>
       <r>    -0.0296     7.4218    32.1065 </r>
       <r>     0.0477     6.6358    32.6192 </r>
       <r>     0.1249     6.0369    33.0857 </r>
       <r>     0.2022     7.5993    33.6730 </r>
       <r>     0.2795    11.8876    34.5916 </r>
       <r>     0.3568    16.6012    35.8744 </r>
       <r>     0.4340    21.4033    37.5284 </r>
       <r>     0.5113    10.3405    38.3274 </r>
       <r>     0.5886    16.7753    39.6237 </r>
       <r>     0.6658    10.1804    40.4104 </r>
       <r>     0.7431     6.6447    40.9239 </r>
       <r>     0.8204    13.7459    41.9861 </r>
       <r>     0.8977    20.0780    43.5376 </r>
       <r>     0.9749    17.9716    44.9263 </r>
       <r>     1.0522    19.6240    46.4428 </r>
       <r>     1.1295    11.8167    47.3559 </r>
       <r>     1.2068     7.9021    47.9665 </r>
       <r>     1.2840     0.4325    47.9999 </r>
       <r>     1.3613     0.0007    48.0000 </r>
       <r>     1.4386     0.0000    48.0000 </r>
       <r>     1.5159     0.0000    48.0000 </r>
       <r>     1.5931     0.0000    48.0000 </r>
       <r>     1.6704     0.0000    48.0000 </r>
       <r>     1.7477     0.0000    48.0000 </r>
       <r>     1.8250     0.0000    48.0000 </r>
       <r>     1.9022     0.0000    48.0000 </r>
       <r>     1.9795     0.0000    48.0000 </r>
       <r>     2.0568     0.0000    48.0000 </r>
       <r>     2.1341     0.0000    48.0000 </r>
       <r>     2.2113     0.0000    48.0000 </r>
      </set>
     </set>
    </array>
   </total>
  </dos>
 </calculation>
 <structure name="finalpos" >
  <crystal>
   <varray name="basis" >
    <v>       8.31557575       0.00000000       0.00000000 </v>
    <v>       5.54371716       9.60199979       0.00000000 </v>
    <v>       0.00000000       0.00000000      26.78963917 </v>
   </varray>
   <i name="volume">   2139.04972377 </i>
   <varray name="rec_basis" >
    <v>       0.12025626      -0.06942998       0.00000000 </v>
    <v>       0.00000000       0.10414497       0.00000000 </v>
    <v>       0.00000000       0.00000000       0.03732786 </v>
   </varray>
  </crystal>
  <varray name="positions" >
   <v>       0.47821380       0.37477505       0.35170537 </v>
   <v>       0.35128696       0.63772132       0.37161008 </v>
   <v>       0.37055747       0.49858989       0.38561550 </v>
   <v>       0.54824286       0.44594356       0.42872918 </v>
   <v>       0.36498734       0.39581026       0.32184532 </v>
   <v>       0.58015735       0.37747553       0.32706338 </v>
   <v>       0.50074393       0.27421059       0.36443903 </v>
   <v>       0.22557974       0.70145075       0.34942576 </v>
   <v>       0.26994940       0.49355969       0.41028548 </v>
   <v>       0.47021438       0.62227142       0.34931079 </v>
   <v>       0.59484372       0.34187566       0.44351848 </v>
   <v>       0.34256564       0.69794315       0.40480575 </v>
   <v>       0.65968103       0.45733077       0.41226013 </v>
   <v>       0.48043453       0.52336910       0.45833017 </v>
  </varray>
 </structure>
</modeling>
